[Molden Format]
[Title]
[Atoms] AU
Zn     1    30  0.70402875765611E-01 -0.70956271174167E-01  0.16392897311215E-01
H      2     1  0.13007552037550E+01  0.20796025730721E+01 -0.70969902953086E+01
C      3     6  0.47867809705693E+00  0.20478650338136E+01 -0.52094370642302E+01
H      4     1  0.95639110732370E+00  0.37715957103375E+01 -0.41933472120422E+01
H      5     1 -0.15647992789042E+01  0.18738779261220E+01 -0.53238805828784E+01
O      6     8  0.13503892235918E+01 -0.13535632181639E+00 -0.38501536397325E+01
H      7     1  0.30844037947916E+01  0.13637481889906E+00 -0.33651808749103E+01
H      8     1 -0.27404232450082E+01  0.23556922239900E+01  0.42058052159217E+01
H      9     1 -0.34180644914736E+01 -0.76451288158219E+00  0.51435794639438E+01
H     10     1 -0.92758273345664E+01 -0.72612867101043E+00 -0.24244505825461E+01
H     11     1 -0.43912784484120E+01 -0.12063402375380E+01 -0.40035546000037E+01
H     12     1 -0.57780287439051E+01  0.15975683632843E+01  0.54528482139785E+01
C     13     6 -0.42238605272692E+01  0.92888077414395E+00  0.42846309692908E+01
C     14     6 -0.75641848305230E+01 -0.45394852434928E+00 -0.13715761217099E+01
C     15     6 -0.51756327704403E+01  0.35549581666675E+00  0.17186270840629E+01
C     16     6 -0.51380897780882E+01 -0.68369559084915E+00 -0.21877488762945E+01
N     17     7 -0.75941697911318E+01  0.21117872312968E+00  0.11160573943734E+01
N     18     7 -0.36015718714409E+01 -0.15059260353763E+00 -0.19765345101079E+00
H     19     1  0.39833238051794E+00 -0.53534440763293E+01 -0.31010811123670E+01
H     20     1 -0.20514876561299E+01 -0.54509486765460E+01 -0.85727112863084E+00
H     21     1  0.57175336394931E+01 -0.61637206980413E+01  0.49451849672989E+01
H     22     1  0.42257667679942E+01 -0.12747599794754E+01  0.42356213880504E+01
H     23     1 -0.17798198152585E+00 -0.81972531048164E+01 -0.14035098144272E+01
C     24     6 -0.15760405575756E+00 -0.61449082581519E+01 -0.12790952986080E+01
C     25     6  0.43669236987827E+01 -0.54198857216837E+01  0.36285314473276E+01
C     26     6  0.16270084913526E+01 -0.53686450502902E+01  0.72759130498532E+00
C     27     6  0.36463721832923E+01 -0.29781487223056E+01  0.32925643672888E+01
N     28     7  0.30868869630294E+01 -0.69473310279602E+01  0.19932290277682E+01
N     29     7  0.18876431661048E+01 -0.29451892948662E+01  0.14162974297845E+01
H     30     1  0.54692311817294E+01  0.32688950062526E+00  0.68517333650866E-01
H     31     1  0.77116998013694E+01  0.28047230102907E+01  0.35666692471133E+00
H     32     1  0.15225890396682E+01  0.94199893154164E+01  0.42432966646194E+00
H     33     1 -0.17106090822622E+01  0.54809026663952E+01  0.12739247963809E+01
H     34     1  0.64132660710910E+01  0.21225969714536E+01 -0.26208806858856E+01
C     35     6  0.59913536937452E+01  0.22037695601780E+01 -0.59634655120124E+00
C     36     6  0.18917274066186E+01  0.74277668562950E+01  0.36557274988958E+00
C     37     6  0.39294748656495E+01  0.40244702275297E+01 -0.58893915206956E-01
C     38     6  0.26681492317595E+00  0.54881441973213E+01  0.81489401452667E+00
N     39     7  0.42273637206785E+01  0.65007997220317E+01 -0.19459633711027E+00
N     40     7  0.15803324011660E+01  0.32957845184539E+01  0.55398022436789E+00
[GTO]
           1 0
 s           5   1.000000    
   1.82046632240000       0.240056418449634     
   1.13274582070000      -0.436575504446940     
  0.315046004900000       8.906567496884715E-003
  0.148617277200000       0.166219005942118     
  5.129314220000000E-002  1.367279402521408E-002
 p           3   1.000000    
   1.22375302100000      -0.199252487434196     
  0.183640111800000       0.158797188113891     
  4.740596480000000E-002  5.226337947731776E-003
 
           2 0
 s           8   1.000000    
   337.005012218500       3.357970835545787E-002
   53.3105310515000       5.987795518153521E-002
   12.2082534814000       0.105478421537754     
   3.41882690980000       0.163049132886690     
   1.10879012580000       0.198703858384386     
  0.478717798300000       0.122390796873643     
  0.212137087700000       8.578969329466822E-002
  6.905810860000000E-002  9.346406394977493E-003
 
           3 0
 s           6   1.000000    
   2.20862762910000       -1.30813570009972     
   1.91795894900000        1.00254305211209     
  0.497153036800000       0.262380201615888     
  0.192182467300000       0.131717372579518     
  0.150531183200000      -6.190116494708950E-002
  7.818867730000000E-002  2.189610522946036E-002
 p           6   1.000000    
   24.5973356357000       0.510143382685376     
   6.48816086650000       0.734122946890993     
   2.22635867440000       0.652205058450300     
  0.776897003100000       0.439670309992368     
  0.283424721400000       0.119694462827583     
  9.862825729999999E-002  1.444932664667710E-002
 
           4 0
 s           8   1.000000    
   337.005012218500       3.390660575374738E-002
   53.3105310515000       6.017576806599750E-002
   12.2082534814000       0.106368057784652     
   3.41882690980000       0.164102385931194     
   1.10879012580000       0.200455650407429     
  0.478717798300000       0.122744336383224     
  0.212137087700000       8.603713910953123E-002
  6.905810860000000E-002  8.724997386837590E-003
 
           5 0
 s           8   1.000000    
   337.005012218500       3.388405057925815E-002
   53.3105310515000       6.015525099276716E-002
   12.2082534814000       0.106306689993222     
   3.41882690980000       0.164029772571547     
   1.10879012580000       0.200334800824016     
  0.478717798300000       0.122720035064241     
  0.212137087700000       8.602013051102410E-002
  6.905810860000000E-002  8.767951492642369E-003
 
           6 0
 s           6   1.000000    
   3.48359494310000       -1.31898925622554     
   2.85986576440000        1.12050749444045     
  0.740681029000000       0.296510040041244     
  0.344926919200000       8.179755650359770E-002
  0.261978532900000       3.966445699292340E-002
  9.461635039999999E-002  1.136258474052539E-002
 p           6   1.000000    
   37.6414713255000        1.49588555175220     
   9.71308856170000        1.81701548640361     
   3.13717714760000        1.32713757329125     
   1.12138051620000       0.641921101043948     
  0.398077926500000       0.184370483845982     
  0.123047771000000       1.723644494908986E-002
 
           7 0
 s           8   1.000000    
   337.005012218500       3.664887843700718E-002
   53.3105310515000       6.263444751962827E-002
   12.2082534814000       0.113811966239116     
   3.41882690980000       0.172863707721764     
   1.10879012580000       0.215125693829351     
  0.478717798300000       0.125593687685616     
  0.212137087700000       8.803125640851175E-002
  6.905810860000000E-002  3.413154101369750E-003
 
           8 0
 s           8   1.000000    
   337.005012218500       3.388460196957489E-002
   53.3105310515000       6.015575261463466E-002
   12.2082534814000       0.106308190234732     
   3.41882690980000       0.164031547802809     
   1.10879012580000       0.200337755183457     
  0.478717798300000       0.122720629304618     
  0.212137087700000       8.602054642268206E-002
  6.905810860000000E-002  8.766901562993860E-003
 
           9 0
 s           8   1.000000    
   337.005012218500       3.378941868287822E-002
   53.3105310515000       6.006911936479173E-002
   12.2082534814000       0.106049192488149     
   3.41882690980000       0.163725022836614     
   1.10879012580000       0.199827735000486     
  0.478717798300000       0.122617927972645     
  0.212137087700000       8.594866509383188E-002
  6.905810860000000E-002  8.948041831044255E-003
 
          10 0
 s           8   1.000000    
   337.005012218500       3.435674596464485E-002
   53.3105310515000       6.058425392383474E-002
   12.2082534814000       0.107592321450839     
   3.41882690980000       0.165549717484851     
   1.10879012580000       0.202866853657104     
  0.478717798300000       0.123226446435386     
  0.212137087700000       8.637456575656588E-002
  6.905810860000000E-002  7.865302505676961E-003
 
          11 0
 s           8   1.000000    
   337.005012218500       3.437940367038831E-002
   53.3105310515000       6.060476539769821E-002
   12.2082534814000       0.107653920632154     
   3.41882690980000       0.165622475741180     
   1.10879012580000       0.202988189281947     
  0.478717798300000       0.123250567645967     
  0.212137087700000       8.639144786552155E-002
  6.905810860000000E-002  7.821906094910066E-003
 
          12 0
 s           8   1.000000    
   337.005012218500       3.392958546172426E-002
   53.3105310515000       6.019666651724510E-002
   12.2082534814000       0.106430578333534     
   3.41882690980000       0.164176357039054     
   1.10879012580000       0.200578771551251     
  0.478717798300000       0.122769081010577     
  0.212137087700000       8.605445796059323E-002
  6.905810860000000E-002  8.681222818875215E-003
 
          13 0
 s           6   1.000000    
   2.20862762910000       -1.28360860973159     
   1.91795894900000       0.983657810345837     
  0.497153036800000       0.257435387360361     
  0.192182467300000       0.129237235986852     
  0.150531183200000      -5.721396642245098E-002
  7.818867730000000E-002  2.148325867229401E-002
 p           6   1.000000    
   24.5973356357000       0.503138194164569     
   6.48816086650000       0.727709406360325     
   2.22635867440000       0.646254342539162     
  0.776897003100000       0.435985617025321     
  0.283424721400000       0.118694641379228     
  9.862825729999999E-002  1.538350220351353E-002
 
          14 0
 s           6   1.000000    
   2.20862762910000       -1.34643025802096     
   1.91795894900000        1.03202949129794     
  0.497153036800000       0.270100793972497     
  0.192182467300000       0.135589722323316     
  0.150531183200000      -6.924320392471320E-002
  7.818867730000000E-002  2.254070505070136E-002
 p           6   1.000000    
   24.5973356357000       0.520725135298132     
   6.48816086650000       0.743754376117932     
   2.22635867440000       0.661147582364664     
  0.776897003100000       0.445199942538424     
  0.283424721400000       0.121194815473324     
  9.862825729999999E-002  1.302071773164350E-002
 
          15 0
 s           6   1.000000    
   2.20862762910000       -1.42316455475031     
   1.91795894900000        1.09111638138692     
  0.497153036800000       0.285571888137855     
  0.192182467300000       0.143349367674968     
  0.150531183200000      -8.404433018667117E-002
  7.818867730000000E-002  2.383240671522877E-002
 p           6   1.000000    
   24.5973356357000       0.540698037821475     
   6.48816086650000       0.761739374519018     
   2.22635867440000       0.677867337895864     
  0.776897003100000       0.455512463592488     
  0.283424721400000       0.123992619929303     
  9.862825729999999E-002  1.026426883160252E-002
 
          16 0
 s           6   1.000000    
   2.20862762910000       -1.34392664787996     
   1.91795894900000        1.03010171338775     
  0.497153036800000       0.269596032979894     
  0.192182467300000       0.135336554340173     
  0.150531183200000      -6.876230295413825E-002
  7.818867730000000E-002  2.249856201211457E-002
 p           6   1.000000    
   24.5973356357000       0.520046238423152     
   6.48816086650000       0.743138535043157     
   2.22635867440000       0.660575563094477     
  0.776897003100000       0.444846514170135     
  0.283424721400000       0.121098923001119     
  9.862825729999999E-002  1.311301755704639E-002
 
          17 0
 s           6   1.000000    
   2.69507309610000       -1.13442007710821     
   2.24947021280000       0.936447310205916     
  0.611851695800000       0.235702525774441     
  0.303726665600000       9.005342120470805E-002
  0.171628270400000       3.133000262589373E-002
  7.154913430000000E-002  9.703911579092450E-003
 p           6   1.000000    
   27.5476401720000       0.938423304756704     
   7.12656627820000        1.20080330595282     
   2.35805520400000       0.907701352602751     
  0.845047262300000       0.476824230056710     
  0.301063057900000       0.123999343267699     
  9.457452580000000E-002  1.218949589466110E-002
 
          18 0
 s           6   1.000000    
   2.69507309610000       -1.13891964716018     
   2.24947021280000       0.940216174935804     
  0.611851695800000       0.236654353375867     
  0.303726665600000       9.041614174769623E-002
  0.171628270400000       3.145918481889336E-002
  7.154913430000000E-002  9.165363928855893E-003
 p           6   1.000000    
   27.5476401720000       0.946672937783601     
   7.12656627820000        1.20743893350451     
   2.35805520400000       0.915267265456105     
  0.845047262300000       0.479748138371532     
  0.301063057900000       0.124584538937739     
  9.457452580000000E-002  1.146511787228142E-002
 
          19 0
 s           8   1.000000    
   337.005012218500       3.384113227757398E-002
   53.3105310515000       6.011619795573329E-002
   12.2082534814000       0.106189912310992     
   3.41882690980000       0.163891578760539     
   1.10879012580000       0.200104838307600     
  0.478717798300000       0.122673756368790     
  0.212137087700000       8.598773979538751E-002
  6.905810860000000E-002  8.849653024597602E-003
 
          20 0
 s           8   1.000000    
   337.005012218500       3.391714002882548E-002
   53.3105310515000       6.018534885975679E-002
   12.2082534814000       0.106396718518963     
   3.41882690980000       0.164136296625978     
   1.10879012580000       0.200512091544177     
  0.478717798300000       0.122755681492419     
  0.212137087700000       8.604507959368074E-002
  6.905810860000000E-002  8.704931908371304E-003
 
          21 0
 s           8   1.000000    
   337.005012218500       3.436390991297313E-002
   53.3105310515000       6.059073978940135E-002
   12.2082534814000       0.107611798223316     
   3.41882690980000       0.165572723269296     
   1.10879012580000       0.202905218072554     
  0.478717798300000       0.123234074633928     
  0.212137087700000       8.637990463180206E-002
  6.905810860000000E-002  7.851582651354544E-003
 
          22 0
 s           8   1.000000    
   337.005012218500       3.435161946685440E-002
   53.3105310515000       6.057961236693248E-002
   12.2082534814000       0.107578383795759     
   3.41882690980000       0.165533254072756     
   1.10879012580000       0.202839400020388     
  0.478717798300000       0.123220986860812     
  0.212137087700000       8.637074467126175E-002
  6.905810860000000E-002  7.875119656277898E-003
 
          23 0
 s           8   1.000000    
   337.005012218500       3.394339099074576E-002
   53.3105310515000       6.020921936046905E-002
   12.2082534814000       0.106468137710101     
   3.41882690980000       0.164220792332046     
   1.10879012580000       0.200652737602549     
  0.478717798300000       0.122783940007848     
  0.212137087700000       8.606485781449885E-002
  6.905810860000000E-002  8.654918534981577E-003
 
          24 0
 s           6   1.000000    
   2.20862762910000       -1.28460648009399     
   1.91795894900000       0.984426139639176     
  0.497153036800000       0.257636562590137     
  0.192182467300000       0.129338138211583     
  0.150531183200000      -5.740443168088943E-002
  7.818867730000000E-002  2.150005494302589E-002
 p           6   1.000000    
   24.5973356357000       0.503426756180474     
   6.48816086650000       0.727974174722958     
   2.22635867440000       0.646499941623240     
  0.776897003100000       0.436137769892748     
  0.283424721400000       0.118735928083299     
  9.862825729999999E-002  1.534519953974079E-002
 
          25 0
 s           6   1.000000    
   2.20862762910000       -1.34619865785496     
   1.91795894900000        1.03185115921397     
  0.497153036800000       0.270054100271023     
  0.192182467300000       0.135566302628175     
  0.150531183200000      -6.919871218174319E-002
  7.818867730000000E-002  2.253680654301764E-002
 p           6   1.000000    
   24.5973356357000       0.520662407564627     
   6.48816086650000       0.743697486664196     
   2.22635867440000       0.661094739702968     
  0.776897003100000       0.445167294763312     
  0.283424721400000       0.121185957470459     
  9.862825729999999E-002  1.302924966724432E-002
 
          26 0
 s           6   1.000000    
   2.20862762910000       -1.42349536906960     
   1.91795894900000        1.09137112133326     
  0.497153036800000       0.285638588477167     
  0.192182467300000       0.143382821575991     
  0.150531183200000      -8.410840238887403E-002
  7.818867730000000E-002  2.383797562709318E-002
 p           6   1.000000    
   24.5973356357000       0.540780760122420     
   6.48816086650000       0.761813315087325     
   2.22635867440000       0.677936137172666     
  0.776897003100000       0.455554823420047     
  0.283424721400000       0.124004111401747     
  9.862825729999999E-002  1.025268301541496E-002
 
          27 0
 s           6   1.000000    
   2.20862762910000       -1.34331967737994     
   1.91795894900000        1.02963434703556     
  0.497153036800000       0.269473659816896     
  0.192182467300000       0.135275176830261     
  0.150531183200000      -6.864573319278357E-002
  7.818867730000000E-002  2.248834494604719E-002
 p           6   1.000000    
   24.5973356357000       0.519881379856614     
   6.48816086650000       0.742988944852995     
   2.22635867440000       0.660436622165353     
  0.776897003100000       0.444760662092501     
  0.283424721400000       0.121075629480832     
  9.862825729999999E-002  1.313541751919669E-002
 
          28 0
 s           6   1.000000    
   2.69507309610000       -1.13441391221941     
   2.24947021280000       0.936442146628046     
  0.611851695800000       0.235701221721423     
  0.303726665600000       9.005292425599047E-002
  0.171628270400000       3.132982564762479E-002
  7.154913430000000E-002  9.704647679079284E-003
 p           6   1.000000    
   27.5476401720000       0.938411980986140     
   7.12656627820000        1.20079417216065     
   2.35805520400000       0.907690964646240     
  0.845047262300000       0.476820208349109     
  0.301063057900000       0.123998536725325     
  9.457452580000000E-002  1.219048480256168E-002
 
          29 0
 s           6   1.000000    
   2.69507309610000       -1.13869483220669     
   2.24947021280000       0.940027862884981     
  0.611851695800000       0.236606794790140     
  0.303726665600000       9.039801831584307E-002
  0.171628270400000       3.145272988166739E-002
  7.154913430000000E-002  9.192333148434241E-003
 p           6   1.000000    
   27.5476401720000       0.946261496524820     
   7.12656627820000        1.20710887501188     
   2.35805520400000       0.914890017462249     
  0.845047262300000       0.479602598227570     
  0.301063057900000       0.124555467056374     
  9.457452580000000E-002  1.150143334435088E-002
 
          30 0
 s           8   1.000000    
   337.005012218500       3.389815083458334E-002
   53.3105310515000       6.016807768525954E-002
   12.2082534814000       0.106345054026054     
   3.41882690980000       0.164075167475561     
   1.10879012580000       0.200410349690664     
  0.478717798300000       0.122735228518020     
  0.212137087700000       8.603076447757019E-002
  6.905810860000000E-002  8.741100311160530E-003
 
          31 0
 s           8   1.000000    
   337.005012218500       3.390203241327436E-002
   53.3105310515000       6.017160835243774E-002
   12.2082534814000       0.106355614887528     
   3.41882690980000       0.164087663380404     
   1.10879012580000       0.200431146901592     
  0.478717798300000       0.122739410097489     
  0.212137087700000       8.603369118243087E-002
  6.905810860000000E-002  8.733707804080641E-003
 
          32 0
 s           8   1.000000    
   337.005012218500       3.437453098893890E-002
   53.3105310515000       6.060035467987512E-002
   12.2082534814000       0.107640673536565     
   3.41882690980000       0.165606829377636     
   1.10879012580000       0.202962095554414     
  0.478717798300000       0.123245381413178     
  0.212137087700000       8.638781809313323E-002
  6.905810860000000E-002  7.831239771766208E-003
 
          33 0
 s           8   1.000000    
   337.005012218500       3.441706551236743E-002
   53.3105310515000       6.063884918387919E-002
   12.2082534814000       0.107756306258184     
   3.41882690980000       0.165743395369479     
   1.10879012580000       0.203189867678056     
  0.478717798300000       0.123290631072785     
  0.212137087700000       8.641948766931999E-002
  6.905810860000000E-002  7.749745779312318E-003
 
          34 0
 s           8   1.000000    
   337.005012218500       3.357561514428588E-002
   53.3105310515000       5.987421998433832E-002
   12.2082534814000       0.105467279085117     
   3.41882690980000       0.163035933142892     
   1.10879012580000       0.198681919557960     
  0.478717798300000       0.122386351947419     
  0.212137087700000       8.578658221988102E-002
  6.905810860000000E-002  9.354171897882697E-003
 
          35 0
 s           6   1.000000    
   2.20862762910000       -1.28064060797373     
   1.91795894900000       0.981372543728816     
  0.497153036800000       0.256837025454795     
  0.192182467300000       0.128937119208219     
  0.150531183200000      -5.664757396252247E-002
  7.818867730000000E-002  2.143330099454255E-002
 p           6   1.000000    
   24.5973356357000       0.502278108735969     
   6.48816086650000       0.726919948131566     
   2.22635867440000       0.645522072801643     
  0.776897003100000       0.435531924209371     
  0.283424721400000       0.118571531335737     
  9.862825729999999E-002  1.549757662283157E-002
 
          36 0
 s           6   1.000000    
   2.20862762910000       -1.34639698760278     
   1.91795894900000        1.03200387308059     
  0.497153036800000       0.270094086209238     
  0.192182467300000       0.135586357977297     
  0.150531183200000      -6.923681241698167E-002
  7.818867730000000E-002  2.254014501228183E-002
 p           6   1.000000    
   24.5973356357000       0.520716125108514     
   6.48816086650000       0.743746204688928     
   2.22635867440000       0.661139992187978     
  0.776897003100000       0.445195253121087     
  0.283424721400000       0.121193543139614     
  9.862825729999999E-002  1.302194330286953E-002
 
          37 0
 s           6   1.000000    
   2.20862762910000       -1.41958773188086     
   1.91795894900000        1.08836209170037     
  0.497153036800000       0.284850713325697     
  0.192182467300000       0.142987658618170     
  0.150531183200000      -8.335171549643282E-002
  7.818867730000000E-002  2.377219475105963E-002
 p           6   1.000000    
   24.5973356357000       0.539801831972369     
   6.48816086650000       0.760938012011505     
   2.22635867440000       0.677121729314660     
  0.776897003100000       0.455053350454962     
  0.283424721400000       0.123868070202231     
  9.862825729999999E-002  1.038969673570987E-002
 
          38 0
 s           6   1.000000    
   2.20862762910000       -1.34408889791963     
   1.91795894900000        1.03022664570017     
  0.497153036800000       0.269628744711352     
  0.192182467300000       0.135352961242447     
  0.150531183200000      -6.879346461494579E-002
  7.818867730000000E-002  2.250129314957677E-002
 p           6   1.000000    
   24.5973356357000       0.520090289232207     
   6.48816086650000       0.743178503200675     
   2.22635867440000       0.660612686251655     
  0.776897003100000       0.444869452306377     
  0.283424721400000       0.121105146607921     
  9.862825729999999E-002  1.310703131438908E-002
 
          39 0
 s           6   1.000000    
   2.69507309610000       -1.13442339248873     
   2.24947021280000       0.936450087097311     
  0.611851695800000       0.235703227073763     
  0.303726665600000       9.005368845595467E-002
  0.171628270400000       3.133009780204848E-002
  7.154913430000000E-002  9.703515714071529E-003
 p           6   1.000000    
   27.5476401720000       0.938429394479896     
   7.12656627820000        1.20080821791583     
   2.35805520400000       0.907706939058708     
  0.845047262300000       0.476826392850560     
  0.301063057900000       0.123999777008216     
  9.457452580000000E-002  1.218896407144635E-002
 
          40 0
 s           6   1.000000    
   2.69507309610000       -1.13824647858801     
   2.24947021280000       0.939652309672168     
  0.611851695800000       0.236511948179926     
  0.303726665600000       9.036187452558722E-002
  0.171628270400000       3.143985681718788E-002
  7.154913430000000E-002  9.246099121024203E-003
 p           6   1.000000    
   27.5476401720000       0.945440712275086     
   7.12656627820000        1.20645016111319     
   2.35805520400000       0.914137415806494     
  0.845047262300000       0.479312169572123     
  0.301063057900000       0.124497435478357     
  9.457452580000000E-002  1.157381966935464E-002
 
[MO]
Sym=     1a
Ene=   -1.30018367323931     
Spin= Alpha
Occup=     2.00000000
           1  1.985679352421625E-002
           2 -5.238955980908983E-004
           3 -4.015249811260968E-004
           4 -1.976342146400429E-003
           5  4.172324367418611E-002
           6  0.174554658769886     
           7  1.958981017383098E-002
           8 -5.327510995516700E-002
           9  3.349367598364555E-002
          10  4.521075283446110E-002
          11  4.205446433581434E-002
          12  0.774997087233928     
          13  2.121934177827567E-003
          14  2.457229776935116E-002
          15 -5.925618161951437E-003
          16  0.108066738529884     
          17  3.128869573158033E-003
          18  1.920690105085892E-003
          19  3.954084347377230E-003
          20  1.058305962245863E-002
          21  1.808658203054116E-003
          22  6.642543459640124E-003
          23 -2.712439790308035E-003
          24 -6.087597611087833E-004
          25 -1.591029535658177E-003
          26  1.529567839126574E-002
          27  2.800948654024258E-003
          28  7.814873553642247E-004
          29  2.862367620894842E-003
          30  2.043092296299730E-002
          31 -1.769679710089402E-003
          32 -7.369669730266250E-004
          33 -3.023275378408572E-003
          34  1.601892944629540E-002
          35 -2.257926868047578E-003
          36  1.110267229528987E-003
          37  6.699559391876828E-003
          38  2.235839440839608E-002
          39  1.939062308020362E-003
          40 -4.000453385675208E-004
          41 -1.163299695024314E-003
          42  3.028246936977497E-002
          43 -6.614747859208704E-003
          44 -2.773774581372625E-004
          45 -2.594526635031320E-004
          46  1.148501022768658E-002
          47  5.116682252295142E-003
          48  4.017601956902530E-003
          49  5.702954662335055E-003
          50  2.980455398509991E-003
          51  6.529473592626081E-003
          52  2.306249617180291E-003
          53 -1.389664026596933E-003
          54  4.847606098486640E-003
          55  1.611069839983682E-002
          56 -3.132251154448139E-003
          57  6.435211746762232E-004
          58 -3.224806547402152E-003
          59  2.404099483007761E-002
          60  2.133971082639706E-003
          61  1.590581311641563E-003
          62  1.955324040292741E-003
          63  1.712673083041757E-002
          64 -1.871879167669238E-003
          65 -4.484246012764982E-003
          66 -2.213503768119004E-003
          67  2.510253575313042E-002
          68 -4.116704169734534E-004
          69  2.454417680871373E-003
          70  1.365670810341898E-004
          71  3.375647097743020E-002
          72  2.667373325865420E-003
          73 -5.199511781225559E-003
          74  1.812632476197839E-003
          75  1.603462436888533E-002
          76  8.135619725062425E-003
          77  1.134573101679962E-002
          78  1.351088231144828E-002
          79  1.341658929936848E-002
          80  2.655093127366849E-002
          81 -5.294412355553121E-003
          82  9.274863432381937E-003
          83  4.696019512345403E-003
          84  4.537690870166033E-002
          85  5.057511893714886E-003
          86 -1.136872126583755E-002
          87 -4.123061158397221E-004
          88  7.056133524262116E-002
          89 -9.129147613976747E-003
          90  3.314403431320139E-003
          91  1.087746341216689E-003
          92  4.867488670505923E-002
          93  1.286837358790826E-002
          94 -3.285863217370331E-003
          95 -1.887593592104258E-003
          96  7.179772164691291E-002
          97 -4.788489937725409E-003
          98 -3.649768826938056E-003
          99  2.646036212933711E-003
         100  8.978467877139970E-002
         101  4.373935039965001E-003
         102  8.047404340378725E-003
         103 -1.281206269543333E-003
Sym=     2a
Ene=   -1.22391560284422     
Spin= Alpha
Occup=     2.00000000
           1  3.209994319564870E-002
           2  2.933585646867221E-003
           3  1.457082747622829E-002
           4  7.646755552587267E-003
           5 -1.212153849128252E-002
           6 -6.324446453841245E-002
           7 -7.427473028883451E-003
           8  1.598273958182349E-002
           9 -1.290593504105007E-002
          10  1.508489414830511E-003
          11 -1.061293288425780E-002
          12 -0.253614648750078     
          13 -2.917174435554236E-003
          14 -6.213104135576071E-003
          15  2.315418117322182E-003
          16 -2.589125331310202E-002
          17  1.313035754914190E-002