[Molden Format]
[Title]
[Atoms] AU
Zn     1    30  0.26484290491611E+00 -0.17030520365593E+01 -0.16702494822903E+00
H      2     1 -0.59220238902624E+01 -0.33064810382360E+01 -0.38869009861923E+01
C      3     6 -0.44371857440051E+01 -0.20499267817399E+01 -0.32297125552647E+01
H      4     1 -0.37573998148465E+01 -0.86523357179832E+00 -0.47677661519052E+01
H      5     1 -0.51310345111427E+01 -0.86018908627286E+00 -0.17028035435867E+01
O      6     8 -0.23924790139066E+01 -0.35441099258774E+01 -0.21869813192554E+01
H      7     1 -0.16908881409775E+01 -0.46179335161951E+01 -0.34725343367386E+01
H      8     1 -0.38889447242916E+01 -0.32050726221602E+01  0.40402630608661E+01
C      9     6 -0.22530206641522E+01 -0.44552605663203E+01  0.41123097237160E+01
H     10     1 -0.19997301308005E+01 -0.51840829035108E+01  0.60146296539099E+01
H     11     1 -0.25035674818275E+01 -0.60111788098781E+01  0.27923080643554E+01
O     12     8  0.85445904106146E-02 -0.31320075597215E+01  0.33516432286191E+01
H     13     1  0.27355374142576E+00 -0.16875121808725E+01  0.44420418482010E+01
H     14     1  0.68346903572220E+01 -0.26601071328013E+01 -0.33937265518736E+01
C     15     6  0.54508442242201E+01 -0.16289595924028E+01 -0.22821694582383E+01
H     16     1  0.63366415886819E+01 -0.78865227538943E+00 -0.62504666755704E+00
H     17     1  0.45719156571910E+01 -0.15483842733918E+00 -0.34126134669515E+01
O     18     8  0.34419324997585E+01 -0.33398205158864E+01 -0.15378703132294E+01
H     19     1  0.41114794171253E+01 -0.46454399051922E+01 -0.46819598451915E+00
H     20     1  0.22021417202530E+01  0.15643956424615E+01  0.47233565054787E+01
H     21     1 -0.11404350402941E+01  0.18975463738436E+01  0.50024386302771E+01
H     22     1  0.29500614051671E+00  0.74049128834848E+01 -0.28380731249827E+01
H     23     1 -0.15837051901863E-01  0.24821147928949E+01 -0.42683410737810E+01
H     24     1  0.85140080994755E+00  0.45382252032049E+01  0.54279314595169E+01
C     25     6  0.59492819778666E+00  0.28143037728536E+01  0.43442106427580E+01
C     26     6  0.30425069417351E+00  0.57422979605358E+01 -0.16760634705472E+01
C     27     6  0.43778144341410E+00  0.35293457783122E+01  0.16485379241143E+01
C     28     6  0.14524895619093E+00  0.32975087012657E+01 -0.24106998507902E+01
N     29     7  0.48799859671332E+00  0.58777902687630E+01  0.88398619030741E+00
N     30     7  0.22493150651339E+00  0.18380621321606E+01 -0.26669212524350E+00
[GTO]
           1 0
 s           5   1.000000    
   1.82046632240000       0.240506510189184     
   1.13274582070000      -0.437384341114611     
  0.315046004900000       8.929840874028875E-003
  0.148617277200000       0.166527384468162     
  5.129314220000000E-002  1.353575150642521E-002
 p           3   1.000000    
   1.22375302100000      -0.200112280099847     
  0.183640111800000       0.159431535179990     
  4.740596480000000E-002  5.067153094307635E-003
 
           2 0
 s           8   1.000000    
   337.005012218500       3.528565623515516E-002
   53.3105310515000       6.142121951428483E-002
   12.2082534814000       0.110115833612776     
   3.41882690980000       0.168525220036432     
   1.10879012580000       0.207838783648939     
  0.478717798300000       0.124203734268004     
  0.212137087700000       8.705853884630832E-002
  6.905810860000000E-002  6.076274975526084E-003
 
           3 0
 s           6   1.000000    
   2.20862762910000       -1.32613617579324     
   1.91795894900000        1.01640315352313     
  0.497153036800000       0.266009263896462     
  0.192182467300000       0.133537571762296     
  0.150531183200000      -6.534867216926415E-002
  7.818867730000000E-002  2.219909899733120E-002
 p           6   1.000000    
   24.5973356357000       0.515170407569387     
   6.48816086650000       0.738707118486599     
   2.22635867440000       0.656460400131398     
  0.776897003100000       0.442302772674192     
  0.283424721400000       0.120408740446188     
  9.862825729999999E-002  1.377330378330578E-002
 
           4 0
 s           8   1.000000    
   337.005012218500       3.499960614805112E-002
   53.3105310515000       6.116435277272553E-002
   12.2082534814000       0.109339157855024     
   3.41882690980000       0.167610568279441     
   1.10879012580000       0.206308276736315     
  0.478717798300000       0.123905343025937     
  0.212137087700000       8.684970806066039E-002
  6.905810860000000E-002  6.629364254972962E-003
 
           5 0
 s           8   1.000000    
   337.005012218500       3.507117225013739E-002
   53.3105310515000       6.122869075240049E-002
   12.2082534814000       0.109533507489761     
   3.41882690980000       0.167839539619543     
   1.10879012580000       0.206691237011783     
  0.478717798300000       0.123980211813257     
  0.212137087700000       8.690210573114039E-002
  6.905810860000000E-002  6.491171197255460E-003
 
           6 0
 s           6   1.000000    
   3.48359494310000       -1.32271140274702     
   2.85986576440000        1.12402646552556     
  0.740681029000000       0.297736372699794     
  0.344926919200000       8.205180703574502E-002
  0.261978532900000       3.979334088071984E-002
  9.461635039999999E-002  1.073336062892615E-002
 p           6   1.000000    
   37.6414713255000        1.50900287446349     
   9.71308856170000        1.83113840950359     
   3.13717714760000        1.34176368966934     
   1.12138051620000       0.647242117155971     
  0.398077926500000       0.185148737002514     
  0.123047771000000       1.604190750920425E-002
 
           7 0
 s           8   1.000000    
   337.005012218500       3.759438063447224E-002
   53.3105310515000       6.346498652188860E-002
   12.2082534814000       0.116370266097820     
   3.41882690980000       0.175852317304648     
   1.10879012580000       0.220172741096901     
  0.478717798300000       0.126525604528759     
  0.212137087700000       8.868338035571804E-002
  6.905810860000000E-002  1.538756916843095E-003
 
           8 0
 s           8   1.000000    
   337.005012218500       3.498403187383375E-002
   53.3105310515000       6.115034504016961E-002
   12.2082534814000       0.109296860224050     
   3.41882690980000       0.167560727268842     
   1.10879012580000       0.206224932475349     
  0.478717798300000       0.123889031066372     
  0.212137087700000       8.683829194348001E-002
  6.905810860000000E-002  6.659421829360473E-003
 
           9 0
 s           6   1.000000    
   2.20862762910000       -1.32911209297374     
   1.91795894900000        1.01869458143366     
  0.497153036800000       0.266609240755451     
  0.192182467300000       0.133838496877732     
  0.150531183200000      -6.591924977341776E-002
  7.818867730000000E-002  2.224919165422254E-002
 p           6   1.000000    
   24.5973356357000       0.515992368153530     
   6.48816086650000       0.739455194321562     
   2.22635867440000       0.657154975724674     
  0.776897003100000       0.442732256327573     
  0.283424721400000       0.120525271949511     
  9.862825729999999E-002  1.366231300571693E-002
 
          10 0
 s           8   1.000000    
   337.005012218500       3.530981446092207E-002
   53.3105310515000       6.144287724971902E-002
   12.2082534814000       0.110181410159831     
   3.41882690980000       0.168602399416756     
   1.10879012580000       0.207968018948446     
  0.478717798300000       0.124228829467901     
  0.212137087700000       8.707610170154761E-002
  6.905810860000000E-002  6.029474562284414E-003
 
          11 0
 s           8   1.000000    
   337.005012218500       3.517922692227308E-002
   53.3105310515000       6.132573956303630E-002
   12.2082534814000       0.109826903421572     
   3.41882690980000       0.168185080777434     
   1.10879012580000       0.207269393567540     
  0.478717798300000       0.124092981436830     
  0.212137087700000       8.698102826652908E-002
  6.905810860000000E-002  6.282288324117826E-003
 
          12 0
 s           6   1.000000    
   3.48359494310000       -1.32267332824977     
   2.85986576440000        1.12399045838157     
  0.740681029000000       0.297723816357939     
  0.344926919200000       8.204920554250647E-002
  0.261978532900000       3.979202198382758E-002
  9.461635039999999E-002  1.073981738755947E-002
 p           6   1.000000    
   37.6414713255000        1.50886907020573     
   9.71308856170000        1.83099447936638     
   3.13717714760000        1.34161427723141     
   1.12138051620000       0.647187862146149     
  0.398077926500000       0.185140859426547     
  0.123047771000000       1.605419046797676E-002
 
          13 0
 s           8   1.000000    
   337.005012218500       3.716177635190010E-002
   53.3105310515000       6.308611901435723E-002
   12.2082534814000       0.115200290679427     
   3.41882690980000       0.174487040407150     
   1.10879012580000       0.217864247238224     
  0.478717798300000       0.126102556699880     
  0.212137087700000       8.838735118147054E-002
  6.905810860000000E-002  2.399207178004207E-003
 
          14 0
 s           8   1.000000    
   337.005012218500       3.530612096793762E-002
   53.3105310515000       6.143956641326967E-002
   12.2082534814000       0.110171384493888     
   3.41882690980000       0.168590600326257     
   1.10879012580000       0.207948260706807     
  0.478717798300000       0.124224993788880     
  0.212137087700000       8.707341730634328E-002
  6.905810860000000E-002  6.036630670835231E-003
 
          15 0
 s           6   1.000000    
   2.20862762910000       -1.32542241190133     
   1.91795894900000        1.01585356277273     
  0.497153036800000       0.265865361619586     
  0.192182467300000       0.133465395946781     
  0.150531183200000      -6.521184726630404E-002
  7.818867730000000E-002  2.218708445640875E-002
 p           6   1.000000    
   24.5973356357000       0.514972880677132     
   6.48816086650000       0.738527284863824     
   2.22635867440000       0.656293434465544     
  0.776897003100000       0.442199522801306     
  0.283424721400000       0.120380725637571     
  9.862825729999999E-002  1.379995700274997E-002
 
          16 0
 s           8   1.000000    
   337.005012218500       3.502327695000553E-002
   53.3105310515000       6.118563823059670E-002
   12.2082534814000       0.109403442441895     
   3.41882690980000       0.167686311648291     
   1.10879012580000       0.206434945977336     
  0.478717798300000       0.123930122044613     
  0.212137087700000       8.686704992918748E-002
  6.905810860000000E-002  6.583669761564576E-003
 
          17 0
 s           8   1.000000    
   337.005012218500       3.504812813299513E-002
   53.3105310515000       6.120797939027293E-002
   12.2082534814000       0.109470929921269     
   3.41882690980000       0.167765821343260     
   1.10879012580000       0.206567928105479     
  0.478717798300000       0.123956119865088     
  0.212137087700000       8.688524476384203E-002
  6.905810860000000E-002  6.535682322837008E-003
 
          18 0
 s           6   1.000000    
   3.48359494310000       -1.32240977614274     
   2.85986576440000        1.12374122276607     
  0.740681029000000       0.297636908035701     
  0.344926919200000       8.203119838644433E-002
  0.261978532900000       3.978289286116300E-002
  9.461635039999999E-002  1.078449956832264E-002
 p           6   1.000000    
   37.6414713255000        1.50794265678990     
   9.71308856170000        1.82999788241095     
   3.13717714760000        1.34057992296889     
   1.12138051620000       0.646812206775768     
  0.398077926500000       0.185086282892485     
  0.123047771000000       1.613917719481963E-002
 
          19 0
 s           8   1.000000    
   337.005012218500       3.761180950733016E-002
   53.3105310515000       6.348020976559490E-002
   12.2082534814000       0.116417382799006     
   3.41882690980000       0.175907245755438     
   1.10879012580000       0.220265720247656     
  0.478717798300000       0.126542528860818     
  0.212137087700000       8.869522302003886E-002
  6.905810860000000E-002  1.503989254110963E-003
 
          20 0
 s           8   1.000000    
   337.005012218500       3.466617050122479E-002
   53.3105310515000       6.086395451000059E-002
   12.2082534814000       0.108433350312835     
   3.41882690980000       0.166542563827474     
   1.10879012580000       0.204523606238020     
  0.478717798300000       0.123554640582413     
  0.212137087700000       8.660426257399567E-002
  6.905810860000000E-002  7.271625796923876E-003
 
          21 0
 s           8   1.000000    
   337.005012218500       3.469729659538063E-002
   53.3105310515000       6.089204094266502E-002
   12.2082534814000       0.108517928461065     
   3.41882690980000       0.166642344751184     
   1.10879012580000       0.204690232981364     
  0.478717798300000       0.123587508922319     
  0.212137087700000       8.662726627784756E-002
  6.905810860000000E-002  7.211781781051616E-003
 
          22 0
 s           8   1.000000    
   337.005012218500       3.595062638645676E-002
   53.3105310515000       6.201530283055749E-002
   12.2082534814000       0.111919877793449     
   3.41882690980000       0.170645773038451     
   1.10879012580000       0.211394746619483     
  0.478717798300000       0.124888442746799     
  0.212137087700000       8.753772220930281E-002
  6.905810860000000E-002  4.782918853977710E-003
 
          23 0
 s           8   1.000000    
   337.005012218500       3.539448581936978E-002
   53.3105310515000       6.151874047554085E-002
   12.2082534814000       0.110411225916341     
   3.41882690980000       0.168872819966889     
   1.10879012580000       0.208420943095053     
  0.478717798300000       0.124316654747254     
  0.212137087700000       8.713756595185741E-002
  6.905810860000000E-002  5.865334792199917E-003
 
          24 0
 s           8   1.000000    
   337.005012218500       3.537214865134802E-002
   53.3105310515000       6.149873367525145E-002
   12.2082534814000       0.110350601396139     
   3.41882690980000       0.168801492803377     
   1.10879012580000       0.208301461371325     
  0.478717798300000       0.124293505212706     
  0.212137087700000       8.712136485195171E-002
  6.905810860000000E-002  5.908653260915313E-003
 
          25 0
 s           6   1.000000    
   2.20862762910000       -1.30375523514588     
   1.91795894900000       0.999170182768463     
  0.497153036800000       0.261497066354161     
  0.192182467300000       0.131274425020983     
  0.150531183200000      -6.106317600343760E-002
  7.818867730000000E-002  2.182237150210628E-002
 p           6   1.000000    
   24.5973356357000       0.508905552567410     
   6.48816086650000       0.732991803892944     
   2.22635867440000       0.651155310783413     
  0.776897003100000       0.439020591828516     
  0.283424721400000       0.119518168474549     
  9.862825729999999E-002  1.461505870540234E-002
 
          26 0
 s           6   1.000000    
   2.20862762910000       -1.37366888444593     
   1.91795894900000        1.05300341666434     
  0.497153036800000       0.275592520701764     
  0.192182467300000       0.138344148342882     
  0.150531183200000      -7.448345198519751E-002
  7.818867730000000E-002  2.299921567093302E-002
 p           6   1.000000    
   24.5973356357000       0.527997778291084     
   6.48816086650000       0.750333209521174     
   2.22635867440000       0.667260286010360     
  0.776897003100000       0.448974264767824     
  0.283424721400000       0.122218840446362     
  9.862825729999999E-002  1.202630091001337E-002
 
          27 0
 s           6   1.000000    
   2.20862762910000       -1.43891203321159     
   1.91795894900000        1.10324261793649     
  0.497153036800000       0.288746986967429     
  0.192182467300000       0.144941853379750     
  0.150531183200000      -8.709683688938799E-002
  7.818867730000000E-002  2.409750063989561E-002
 p           6   1.000000    
   24.5973356357000       0.544604831096525     
   6.48816086650000       0.765226333419628     
   2.22635867440000       0.681112404170599     
  0.776897003100000       0.457509758531086     
  0.283424721400000       0.124534443057140     
  9.862825729999999E-002  9.715523381077481E-003
 
          28 0
 s           6   1.000000    
   2.20862762910000       -1.35966980753529     
   1.91795894900000        1.04222398668016     
  0.497153036800000       0.272770077696477     
  0.192182467300000       0.136928527277134     
  0.150531183200000      -7.178839435658199E-002
  7.818867730000000E-002  2.276356653608877E-002
 p           6   1.000000    
   24.5973356357000       0.524285872606545     
   6.48816086650000       0.746979630027607     
   2.22635867440000       0.664143855705245     
  0.776897003100000       0.447050578706223     
  0.283424721400000       0.121696924513780     
  9.862825729999999E-002  1.253514464722056E-002
 
          29 0
 s           6   1.000000    
   2.69507309610000       -1.14197877708632     
   2.24947021280000       0.942778659168257     
  0.611851695800000       0.237301517448343     
  0.303726665600000       9.066275935942658E-002
  0.171628270400000       3.154702475076385E-002
  7.154913430000000E-002  8.797738175774847E-003
 p           6   1.000000    
   27.5476401720000       0.952263485565578     
   7.12656627820000        1.21191430595943     
   2.35805520400000       0.920392216283681     
  0.845047262300000       0.481722666983826     
  0.301063057900000       0.124978352926204     
  9.457452580000000E-002  1.096968630614915E-002
 
          30 0
 s           6   1.000000    
   2.69507309610000       -1.14299968203252     
   2.24947021280000       0.943633847005130     
  0.611851695800000       0.237517499509629     
  0.303726665600000       9.074506414729820E-002
  0.171628270400000       3.157634133467892E-002
  7.154913430000000E-002  8.674783290838964E-003
 p           6   1.000000    
   27.5476401720000       0.954125763242028     
   7.12656627820000        1.21340119377936     
   2.35805520400000       0.922098985386771     
  0.845047262300000       0.482379140874007     
  0.301063057900000       0.125109033290107     
  9.457452580000000E-002  1.080382252090876E-002
 
[MO]
Sym=     1a
Ene=   -1.56291372870046     
Spin= Alpha
Occup=     2.00000000
           1 -3.454845462710224E-002
           2  3.638853411722113E-005
           3  5.130298734367681E-003
           4 -1.194378747553972E-004
           5 -2.332355723941437E-002
           6 -9.693613034375587E-002
           7 -2.570770256402374E-002
           8  1.951475104552397E-002
           9 -1.303150931713024E-002
          10 -2.380545766294345E-002
          11 -2.476686827049040E-002
          12 -0.475912444985243     
          13  7.787959591206144E-003
          14 -6.188210673623515E-003
          15  1.009474218010453E-002
          16 -6.611484765642361E-002
          17 -2.754703135430035E-002
          18 -0.105512222590806     
          19 -3.279127692006513E-002
          20 -1.921087326512229E-002
          21  1.084925893592755E-002
          22 -2.565080102900349E-002
          23 -3.082320048906281E-002
          24 -0.507940928931574     
          25  1.431420757183323E-002
          26  2.184309822359895E-003
          27 -6.513210952920259E-003
          28 -6.773923799776192E-002
          29 -1.998837622464548E-002
          30 -8.246585049157486E-002
          31  2.118344523559304E-002
          32  1.906248797381681E-002
          33 -7.473101993590854E-003
          34 -2.075290855067931E-002
          35 -2.134313457891751E-002
          36 -0.411337244847973     
          37 -1.122972207051910E-002
          38 -5.422129417498264E-003
          39 -5.635655924471130E-004
          40 -5.812115126590316E-002
          41 -7.692437645631303E-003
          42 -7.129580472636086E-003
          43 -3.258390504700644E-003
          44 -6.804085692021147E-003
          45 -3.121436762218241E-003
          46 -6.831895610758553E-003
          47 -5.018629254526662E-006
          48 -4.228303109258640E-003
          49  3.337836597372390E-003
          50 -1.277943665557443E-002
          51 -4.043531794866157E-005
          52  2.476664193260494E-003
          53 -2.851263625684775E-003
          54 -2.008718060255295E-002
          55  1.321361505590381E-004
          56 -1.028533166706649E-003
          57  2.212991904180765E-003
          58 -1.327331150477702E-002
          59 -3.519942766484971E-004
          60 -3.550912522793211E-003
          61 -4.768254653938636E-003
          62 -2.064506917606005E-002
          63  2.401745931278572E-004
          64  2.091101098951394E-003
          65  1.066525329398842E-003
          66 -2.934427449982440E-002
          67 -3.066831481180258E-004
          68 -7.801645736663549E-003
          69  1.287687187967843E-005
Sym=     2a
Ene=   -1.53862528926329     
Spin= Alpha
Occup=     2.00000000
           1 -1.826780235588235E-003
           2  3.718209728772839E-003
           3  1.130333056245874E-003
           4  1.098371986986447E-002
           5 -2.333691275997487E-002
           6 -0.103466384361598     
           7 -2.906193601334902E-002
           8  1.997470041247429E-002
           9 -1.652302208573434E-002
          10 -2.377379846063618E-002
          11 -2.248685234560817E-002
          12 -0.471215597781538     
          13  5.680498245091242E-003
          14 -5.550434791251428E-003
          15  8.576672208694958E-003
          16 -6.440638660705170E-002
          17  3.006429476702946E-002
          18  0.140947137446576     
          19  4.239196779157599E-002
          20  2.486589468077292E-002
          21 -1.712906173898029E-002
          22  3.119505808246632E-002
          23  2.788197127232962E-002
          24  0.636489525295472     
          25 -1.563764571807486E-002
          26  4.619929633966945E-004
          27  5.985438267702017E-003
          28  8.497551614253172E-002
          29 -1.212438332235646E-002
          30 -5.222432893442380E-002
          31  1.468287122243340E-002
          32  1.165730647056838E-002
          33 -6.079064870775255E-003
          34 -1.113312206641798E-002
          35 -1.285193192953520E-002
          36 -0.243471055699383     
          37 -5.227206559779641E-003
          38 -3.123152399088675E-003
          39 -1.141711830669689E-003
          40 -2.907008982582885E-002
          41  6.959165832990585E-003
          42  6.706005906928161E-003
          43  5.114596336105602E-004
          44 -1.871297490147261E-003
          45  2.492535249030299E-003
          46  3.465142852584749E-003
          47  2.773409430844673E-004
          48  2.291613398184455E-003
          49 -2.844058988930562E-003
          50  2.698774703697452E-003
          51  6.016815019343359E-005
          52 -6.213014103832935E-004
          53  7.203982850782290E-004
          54  6.617847957043075E-003
          55  1.833271890712207E-005
          56 -7.876912600183575E-004
          57  2.693053020214563E-005
          58  2.599749442291213E-003
          59 -2.390073029926796E-004
          60 -5.341760516677527E-004
          61 -4.545650372994107E-004
          62  5.624392248221273E-003
          63 -2.753920474567537E-005
          64 -6.509683436653760E-004
          65 -1.813304617329153E-004
          66  4.986600435329605E-003
          67 -2.731116605897698E-004
          68  2.510400817810468E-004
          69  6.896784644494024E-004
Sym=     3a
Ene=   -1.53488588626184     
Spin= Alpha
Occup=     2.00000000
           1 -2.395737231590376E-003
           2 -1.134270009245730E-002
           3 -2.747575379405632E-004
           4  3.658940769338705E-003
           5  2.406054296397158E-002
           6  0.105425686483268     
           7  3.086913334588130E-002
           8 -2.027949523959926E-002
           9  1.585467179111034E-002
          10  2.351671822549948E-002
          11  2.461737455912687E-002
          12  0.478379048579830     
          13 -5.795545458269985E-003
          14  6.322231228886503E-003
          15 -9.673238438508067E-003
          16  5.895958651888335E-002
          17  7.312328899439583E-003
          18  2.265687390322376E-002
          19  8.060437830190736E-003
          20  4.849059898420683E-003
          21 -3.333430814652080E-003
          22  5.584804127949127E-003
          23  8.758292556075201E-003
          24  9.654981700898595E-002
          25 -2.448236675635177E-003
          26 -4.798162458720557E-004
          27  1.413579148289918E-003
          28  1.189435381165755E-002
          29 -3.328756360919890E-002
          30 -0.146242339985017     
          31  4.187079178619083E-002
          32  3.251246865597427E-002
          33 -1.513317942280732E-002
          34 -3.328028638456244E-002
          35 -3.328860065550127E-002
          36 -0.670396334768604     
          37 -1.532378535871871E-002
          38 -8.141374619722985E-003
          39 -2.624757292013896E-003
          40 -8.829291071907118E-002
          41 -3.444601367212286E-005
          42  8.480749682900860E-004
          43 -3.307344172380070E-004
          44 -1.883377832923453E-004
          45  6.048992354857976E-005
          46 -2.342481549192340E-004
          47  6.438179046505242E-004
          48  1.678025083581946E-005
          49 -1.264681829162200E-004
          50 -1.203013145759366E-003
          51 -1.381731894732688E-004
          52  2.109517499619969E-004
          53 -2.464319623266317E-004
          54 -1.641492810126149E-003
          55  2.133121568324868E-004
          56 -2.869077158288588E-005
          57  3.778589997992983E-004
          58 -1.508767439083363E-003
          59  1.127720546233083E-003
          60 -3.490058262943988E-004
          61 -4.000027800025645E-004
          62 -1.801153034905487E-003
          63  8.442078591405632E-006
          64  1.057358937003558E-004
          65  8.745643042115112E-005
          66 -2.917905324735903E-003
          67  1.307095765707498E-003
          68 -6.109867861143816E-004
          69 -3.608637726930865E-004
Sym=     4a
Ene=   -1.44062860623039     
Spin= Alpha
Occup=     2.00000000
           1 -3.177634096399390E-002
           2  1.000029787810635E-003
           3 -3.594515117168430E-002
           4  1.637481862717976E-003
           5  1.161322104831967E-003
           6  8.021708550850439E-003
           7  3.081088514429307E-003
           8 -1.849484698727464E-004
           9  1.825252198217633E-003
          10 -5.752883762731255E-004
          11 -4.899121341964975E-004
          12  3.337413502036932E-002
          13 -3.829111902534121E-004
          14  9.864471676343930E-004
          15 -1.196621398654457E-003
          16  4.625434851439716E-003
          17  3.188793758628855E-003
          18  1.690755898343110E-002
          19  5.077536361592732E-003
          20  4.747149117792848E-003
          21 -2.373843287890035E-003
          22  3.246528924201016E-003
          23  3.427081006557271E-003
          24  6.189178917870738E-002
          25 -1.443021076912889E-003
          26  1.114857063154605E-003
          27  1.989507431883639E-003
          28  3.062061853672797E-003
          29  1.425917825623695E-003
          30  1.033616969966438E-002
          31 -4.021602705488170E-003
          32 -2.376605326795735E-004
          33  1.386682323902679E-003
          34  5.226488126636497E-004
          35 -2.818011156270748E-003
          36  4.132108248044285E-002
          37  1.275227722178082E-003
          38  9.937106810783370E-004
          39  2.168364757319711E-004
          40  5.764953944575180E-003
          41 -2.769828736463794E-002
          42 -2.750810450932518E-002
          43 -5.065048417568551E-002
          44 -5.296590089817520E-002
          45 -3.056663442286433E-002
          46 -0.114823499436668     
          47  2.457922533732121E-003
          48 -9.375002930684859E-003
          49  3.834221687367718E-002
          50 -0.210223466381839     
          51 -1.566138376887129E-003
          52  3.442412339835243E-002
          53 -4.279495711517944E-002
          54 -0.284571002904304     
          55  2.537835628990071E-003
          56 -1.246835543030042E-002
          57  4.379697763592444E-002
          58 -0.216106163221470     
          59 -4.292379028509344E-003
          60 -9.459822028206980E-003
          61 -5.563184365312850E-002
          62 -0.321435124205180     
          63  2.264340631378866E-003
          64  2.832795194459849E-002
          65  1.607241827584105E-002
          66 -0.326410143859823     
          67 -2.300196104661934E-003
          68 -5.023280405383222E-002
          69 -2.556037722539305E-003
Sym=     5a
Ene=  -0.985365088740920     
Spin= Alpha
Occup=     2.00000000
           1 -4.804682582530020E-002
           2  7.404948161409659E-004
           3 -3.711991246398840E-002
           4 -1.604922764997248E-003
           5 -4.886440675940108E-003
           6 -1.223919946774519E-002
           7  2.649085393897813E-003
           8 -4.054271241911982E-003
           9  1.100974676841302E-003
          10 -1.078430626902941E-002
          11 -9.222411584253238E-003
          12  2.779557701590208E-002
          13  3.428273190014947E-003
          14 -7.171781655732207E-003
          15 -1.453443835748301E-003
          16  5.334941207950143E-003
          17 -2.904364442608980E-003
          18 -1.779376117030636E-002
          19 -2.370636937463081E-003
          20 -1.042579704124242E-003
          21 -6.333866601442476E-004
          22 -3.814546014200800E-003
          23 -4.183839112560032E-003
          24 -1.237308627747889E-002
          25  5.564595611200417E-003
          26  8.611967047301654E-003
          27  2.046537532014774E-003