
                                 *****************
                                 * O   R   C   A *
                                 *****************

                                            #,                                       
                                            ###                                      
                                            ####                                     
                                            #####                                    
                                            ######                                   
                                           ########,                                 
                                     ,,################,,,,,                         
                               ,,#################################,,                 
                          ,,##########################################,,             
                       ,#########################################, ''#####,          
                    ,#############################################,,   '####,        
                  ,##################################################,,,,####,       
                ,###########''''           ''''###############################       
              ,#####''   ,,,,##########,,,,          '''####'''          '####       
            ,##' ,,,,###########################,,,                        '##       
           ' ,,###''''                  '''############,,,                           
         ,,##''                                '''############,,,,        ,,,,,,###''
      ,#''                                            '''#######################'''  
     '                                                          ''''####''''         
             ,#######,   #######,   ,#######,      ##                                
            ,#'     '#,  ##    ##  ,#'     '#,    #''#        ,####,    ,#,          
            ##       ##  ##   ,#'  ##            #'  '#       #'       ,# #          
            ##       ##  #######   ##           ,######,      #####,      #          
            '#,     ,#'  ##    ##  '#,     ,#' ,#      #,     #,   #      #          
             '#######'   ##     ##  '#######'  #'      '#     '####' #    #          



                #########################################################
                #                        -***-                          #
                #          Department of theory and spectroscopy        #
                #                                                       #
                #                      Frank Neese                      #
                #                                                       #
                #     Directorship, Architecture, Infrastructure        #
                #                    SHARK, DRIVERS                     #
                #        Core code/Algorithms in most modules           #
                #                                                       #
                #        Max Planck Institute fuer Kohlenforschung      #
                #                Kaiser Wilhelm Platz 1                 #
                #                 D-45470 Muelheim/Ruhr                 #
                #                      Germany                          #
                #                                                       #
                #                  All rights reserved                  #
                #                        -***-                          #
                #########################################################


                         Program Version 6.1.1  -  RELEASE   -
                                (GIT: $487d211c$)
                          ($2025-11-21 10:33:24 +0100$)


 With contributions from (in alphabetic order):
[Max-Planck-Institut fuer Kohlenforschung]                               
  Daniel Aravena         : Magnetic Suceptibility                        
  Michael Atanasov       : Ab Initio Ligand Field Theory (pilot matlab implementation)
  Alexander A. Auer      : GIAO ZORA, VPT2 properties, NMR spectrum      
  Ute Becker             : All parallelization in ORCA, NUMFREQ, NUMCALC 
  Giovanni Bistoni       : ED, misc. LED, open-shell LED, HFLD           
  Dmytro Bykov           : pre 5.0 version of the SCF Hessian            
  Marcos Casanova-Páez   : Triplet and SCS-CIS(D). UHF-(DLPNO)-IP/EA/STEOM-CCSD. UHF-CVS-IP/STEOM-CCSD   
  Vijay G. Chilkuri      : MRCI spin determinant printing, contributions to CSF-ICE 
  Pauline Colinet        : FMM embedding                                 
  Dipayan Datta          : RHF DLPNO-CCSD density                        
  Achintya Kumar Dutta   : EOM-CC, STEOM-CC                              
  Nicolas Foglia         : Exact transition moments, OPA infrastructure, MCD improvements    
  Dmitry Ganyushin       : Spin-Orbit,Spin-Spin,Magnetic field MRCI      
  Miquel Garcia-Rates    : C-PCM and meta-GGA Hessian, CCSD/C-PCM, Gaussian charge scheme 
  Tiago L. C. Gouveia    : GS-ROHF, GS-ROCIS                             
  Yang Guo               : DLPNO-NEVPT2, F12-NEVPT2, CIM, IAO-localization        
  Andreas Hansen         : Spin unrestricted coupled pair/coupled cluster methods 
  Ingolf Harden          : AUTO-CI MPn and infrastructure                
  Benjamin Helmich-Paris : MC-RPA, TRAH-(SCF,CASSCF), AVAS, COSX integrals, SCF dyn. polar., MC-PDFT, srDFT 
  Lee Huntington         : MR-EOM, pCC                                   
  Robert Izsak           : Overlap fitted RIJCOSX, COSX-SCS-MP3, EOM     
  Riya Kayal             : Wick's Theorem for AUTO-CI, AUTO-CI UHF-CCSDT 
  Emily Kempfer          : AUTO-CI RHF CISDT and CCSDT, approximate NEVPT4
  Christian Kollmar      : KDIIS, OOCD, Brueckner-CCSD(T), CCSD density, CASPT2, CASPT2-K, improved NEVPT2 
  Axel Koslowski         : Symmetry handling                             
  Simone Kossmann        : meta-GGA functionals, TD-DFT gradient, OOMP2, (MP2 Hessian; deprecated post 5.0) 
  Lucas Lang             : DCDCAS, Hyperfine gauge corrections, ICE-SOC+SSC
  Marvin Lechner         : AUTO-CI (C++ implementation), FIC-MRCC        
  Spencer Leger          : CASSCF response                               
  Dagmar Lenk            : GEPOL surface, SMD, ORCA-2-JSON               
  Dimitrios Liakos       : Extrapolation schemes; Compound Job, Property file
  Dimitrios Manganas     : Further ROCIS development; embedding schemes. LFT, Crystal Embedding 
  Dimitrios Pantazis     : SARC Basis sets                               
  Anastasios Papadopoulos: AUTO-CI, single reference methods and gradients 
  Taras Petrenko         : pre 6.0 DFT Hessian and TD-DFT gradient,  ECA, NRVS 
  Petra Pikulova         : Analytic Raman intensities                    
  Peter Pinski           : DLPNO-MP2, DLPNO-MP2 Gradient                 
  Shashank Vittal Rao    : ES-AILFT, MagRelax                            
  Christoph Reimann      : Effective Core Potentials                     
  Marius Retegan         : Local ZFS, SOC                                
  Christoph Riplinger    : Optimizer, TS searches, QM/MM, DLPNO-CCSD(T), (RO)-DLPNO pert. Triples 
  Michael Roemelt        : Original ROCIS implementation, recursive CI coupling coefficients
  Masaaki Saitow         : Open-shell DLPNO-CCSD energy and density      
  Barbara Sandhoefer     : DKH picture change effects                    
  Yorick L. A. Schmerwitz: GMF and freeze-and-release deltaSCF, NEB S-IDPP initial path                    
  Kantharuban Sivalingam : CASSCF convergence/infrastructure, NEVPT2, NEVPT3, NEVPT4(SD), FIC-MRCI and CEPA variants
  Bernardo de Souza      : ESD, SOC TD-DFT                               
  Georgi L. Stoychev     : AutoAux, RI-MP2 NMR, DLPNO-MP2 response, X2C  
  Van Anh Tran           : RI-MP2 g-tensors                              
  Willem Van den Heuvel  : Paramagnetic NMR                              
  Zikuan Wang            : NOTCH, Electric field optimization            
  Frank Wennmohs         : Technical directorship and infrastructure     
  Hang Xu                : AUTO-CI-Response properties                   
                                                                         
[FACCTs GmbH]                                                            
  Markus Bursch, Nicolas Foglia, Miquel Garcia-Rates, Ingolf Harden, Hagen Neugebauer, Anastasios Papadopoulos, 
  Christoph Riplinger, Bernardo de Souza, Georgi L. Stoychev                                                    
                                                                 
  APM, various basis sets, CI-OPT, improved COSX, DLPNO-Multilevel,           
  DOCKER, DRACO, updates on ESD, Fragmentator, GOAT, IRC, LR-CPCM, L-BFGS, MBIS, meta-GGA TD-DFT gradient, ML-optimized integration grids, 
  MM, NACMEs, nearIR, NEB, NEB-TS, NL-DFT gradient (VV10), 2- and 3-layer-ONIOM, interface openCOSMO-RS, QMMM,   
  Crystal-QMMM, RESP, rigid body optimization, SF, symmetry and pop. for TD-DFT, various functionals, SOLVATOR                                   
                                                                         
[Other institutions]                                                     
  V. Asgeirsson          : NEB                                           
  Christoph Bannwarth    : sTDA-DFT, sTD-DFT, PBEh-3c, B97-3c, D3        
  Giovanni Bistoni       : ETS/NOCV, ADLD/ADEX, COVALED                  
  Martin Brehm           : Molecular dynamics                            
  Ronald Cardenas        : ETS/NOCV                                      
  Martina Colucci        : COVALED                                       
  Sebastian Ehlert       : rSCAN, r2SCAN, r2SCAN-3c, D4, dhf basis sets  
  Marvin Friede          : D4 for Fr, Ra, Ac-Lr                          
  Lars Goerigk           : TD-DFT with DH, B97 family of functionals     
  Stefan Grimme          : VdW corrections, initial TS optimization, DFT functionals, gCP, sTDA/sTD-DF 
  Waldemar Hujo          : DFT-NL                                        
  H. Jonsson             : NEB                                           
  Holger Kruse           : gCP                                           
  Marcel Mueller         : wB97X-3c, vDZP basis set                      
  Hagen Neugebauer       : wr2SCAN, Native XTB                           
  Gianluca Regni         : ADLD/ADEX                                     
  Tobias Risthaus        : pre 6.0 range-separated hybrid DFT and stability analysis
  Lukas Wittmann         : regularized MP2, r2SCAN double-hybrids, wr2SCAN        
                                                                         
We gratefully acknowledge several colleagues who have allowed us to      
interface, adapt or use parts of their codes:                            
  Ed Valeev, F. Pavosevic, A. Kumar             : LibInt (2-el integral package), F12 methods 
  Garnet Chan, S. Sharma, J. Yang, R. Olivares  : DMRG                   
  Ulf Ekstrom                                   : XCFun DFT Library      
  Mihaly Kallay                                 : mrcc  (arbitrary order and MRCC methods)
  Frank Weinhold                                : gennbo (NPA and NBO analysis)           
  Simon Mueller                                 : openCOSMO-RS                            
  Christopher J. Cramer and Donald G. Truhlar   : smd solvation model                     
  S Lehtola, MJT Oliveira, MAL Marques          : LibXC Library                           
  Liviu Ungur et al                             : ANISO software                          


 Your calculation uses the libint2 library for the computation of 2-el integrals
 For citations please refer to: http://libint.valeyev.net

 Your ORCA version has been built with support for libXC version: 7.0.0
 For citations please refer to: https://libxc.gitlab.io

 This ORCA versions uses:
   CBLAS   interface :  Fast vector & matrix operations
   LAPACKE interface :  Fast linear algebra routines
   SCALAPACK package :  Parallel linear algebra routines
   Shared memory     :  Shared parallel matrices
   BLAS/LAPACK       :  OpenBLAS 0.3.29  USE64BITINT DYNAMIC_ARCH NO_AFFINITY Zen SINGLE_THREADED
        Core in use  :  Zen
   Copyright (c) 2011-2014, The OpenBLAS Project


  ***********************************
  * Starting time: Sun Apr 12 14:55:33 2026
  * Host name:     compute-1-6.local
  * Process ID:    797734
  * Working dir.:  /scratch/387623_nflMtH
  ***********************************

================================================================================

----- Orbital basis set information -----
Your calculation utilizes the basis: def2-SVP
   F. Weigend and R. Ahlrichs, Phys. Chem. Chem. Phys. 7, 3297 (2005).

The basis set includes element-specific modifications.

----- AuxJ basis set information -----
Your calculation utilizes the auxiliary basis: def2/J
   H-Rn: F. Weigend, Phys. Chem. Chem. Phys. 8, 1057 (2006).
   Fr-Lr: K. Eichkorn, F. Weigend, O. Treutler, R. Ahlrichs; Theor. Chem. Acc. 97, 119 (1997).

The basis set includes element-specific modifications.

================================================================================
                                        WARNINGS
                       Please study these warnings very carefully!
================================================================================

WARNING: Frozen-Core approximation turned on, but there are no core electrons.
  ===> : Turning off frozen-core approximation


WARNING: ROHF and Conv is not properly working
  ===> : Setting Mode to Direct


WARNING: Found SCFConvIgnored == true
  ===> : Will try to continue after any unconverged SCF -
         no matter how far from convergence the wavefunction might be.

         Please be very careful with your results!


WARNING: TRAH-SCF with ROHF wave function is not implemented yet
  ===> : Turning TRAH off


================================================================================
                                       INPUT FILE
================================================================================
NAME = orc_job_atom30.inp
|  1> # input to generate an atomic fitting density for Zn
|  2> # this file is used internally by ORCA
|  3> #
|  4> # atomic ground state (Mult=1): 1s2 2s2 2p6 3s2 3p6 4s2 3d10 
|  5> #
|  6> ! ROHF def2-SVP def2/J Conv LeanSCF AODIIS SOSCF NoMulliken NoLoewdin NoMayer NoPrintMOs 
|  7> 
|  8> %output print[p_atomdensfit] 2 end
|  9> 
| 10> %scf
| 11>   guess     HCore
| 12>   maxiter    1000
| 13>   maxdisk  500000
| 14>   diismaxeq     8
| 15>   soscfstart 1e-4
| 16>   lshift  1.000000
| 17>   ignoreconv true
| 18> 
| 19>   hftyp        rohf
| 20>   rohf_case    sahf
| 21>   rohf_numop   2
| 22>   rohf_norb[1] 5
| 23>   rohf_nel[1]  10
| 24> 
| 25> end
| 26> 
| 27> %basis
| 28>   NewECP 30
| 29>     N_core 10
| 30>     lmax g
| 31>     s 2
| 32>       1      34.1740010000    399.9863990000  2
| 33>       2      14.4563710000     85.4897500000  2
| 34>     p 4
| 35>       1      39.8886830000     92.3810770000  2
| 36>       2      39.6550170000    184.7711760000  2
| 37>       3      15.2905460000     23.0025410000  2
| 38>       4      14.9035240000     46.0574270000  2
| 39>     d 4
| 40>       1      43.7082960000    -13.6907340000  2
| 41>       2      43.6985360000    -20.5439800000  2
| 42>       3      15.1507180000     -1.3161540000  2
| 43>       4      15.2824410000     -1.8387150000  2
| 44>     f 2
| 45>       1       8.1600140000     -0.3703600000  2
| 46>       2      12.2284220000     -1.0629430000  2
| 47>     g 1
| 48>       1       1.0000000000      0.0000000000  2
| 49>   end
| 50>   NewGTO 30
| 51>     s 9 
| 52>      1    2203.4100000000      0.0001500872
| 53>      2     315.5820000000      0.0008304827
| 54>      3      66.4556000000     -0.0132076763
| 55>      4      41.6666000000      0.0631236875
| 56>      5      11.8328000000     -0.4149661786
| 57>      6       2.5399600000      0.7392076279
| 58>      7       1.0595000000      0.4721634217
| 59>      8       0.1997510000      0.0233975987
| 60>      9       0.1016300000     -0.0127073855
| 61>     s 9 
| 62>      1    2203.4100000000     -0.0000536883
| 63>      2     315.5820000000     -0.0002105146
| 64>      3      66.4556000000      0.0029712222
| 65>      4      41.6666000000     -0.0179318841
| 66>      5      11.8328000000      0.1372018011
| 67>      6       2.5399600000     -0.2992612739
| 68>      7       1.0595000000     -0.3494160133
| 69>      8       0.1997510000      0.3644769874
| 70>      9       0.1016300000      0.7637397389
| 71>     s 9 
| 72>      1    2203.4100000000      0.0001399229
| 73>      2     315.5820000000      0.0003219278
| 74>      3      66.4556000000     -0.0027921448
| 75>      4      41.6666000000      0.0336330358
| 76>      5      11.8328000000     -0.3296193210
| 77>      6       2.5399600000      1.2976792771
| 78>      7       1.0595000000     -0.5820885462
| 79>      8       0.1997510000     -2.1708178828
| 80>      9       0.1016300000      1.6903490992
| 81>     s 9 
| 82>      1    2203.4100000000      0.0004126656
| 83>      2     315.5820000000     -0.0024012093
| 84>      3      66.4556000000      0.0481115842
| 85>      4      41.6666000000     -0.0482764703
| 86>      5      11.8328000000     -0.3483384298
| 87>      6       2.5399600000      2.2722954279
| 88>      7       1.0595000000     -2.6963949389
| 89>      8       0.1997510000      1.7582077835
| 90>      9       0.1016300000     -0.3808047615
| 91>     s 1 
| 92>      1       0.0425660000      1.0000000000
| 93>     s 1 
| 94>      1       0.0178000000      1.0000000000
| 95>     p 8 
| 96>      1     558.2510000000      0.0001280081
| 97>      2      87.5501000000      0.0025051581
| 98>      3      19.6744000000     -0.0799970484
| 99>      4       4.6596900000      0.3619048388
|100>      5       2.1399800000      0.4894458876
|101>      6       0.9534370000      0.2569272140
|102>      7       0.3246550000      0.0276717463
|103>      8       0.1193480000     -0.0030171904
|104>     p 8 
|105>      1     558.2510000000     -0.0000425163
|106>      2      87.5501000000     -0.0005924852
|107>      3      19.6744000000      0.0217985167
|108>      4       4.6596900000     -0.1122649667
|109>      5       2.1399800000     -0.1595019436
|110>      6       0.9534370000     -0.0728194440
|111>      7       0.3246550000      0.3299689773
|112>      8       0.1193480000      0.7644334109
|113>     p 8 
|114>      1     558.2510000000      0.0000648591
|115>      2      87.5501000000      0.0006992619
|116>      3      19.6744000000     -0.0292727225
|117>      4       4.6596900000      0.1652700316
|118>      5       2.1399800000      0.2057583062
|119>      6       0.9534370000      0.0198813319
|120>      7       0.3246550000     -0.5625814942
|121>      8       0.1193480000     -0.5361858795
|122>     p 8 
|123>      1     558.2510000000      0.0002784095
|124>      2      87.5501000000      0.0005689237
|125>      3      19.6744000000     -0.0767683863
|126>      4       4.6596900000      0.6199412357
|127>      5       2.1399800000      0.3779892804
|128>      6       0.9534370000     -1.0198482011
|129>      7       0.3246550000     -0.3861105654
|130>      8       0.1193480000      0.8281884963
|131>     p 1 
|132>      1       0.0428360000      1.0000000000
|133>     p 1 
|134>      1       0.0154000000      1.0000000000
|135>     d 7 
|136>      1     162.5730000000      0.0025901104
|137>      2      50.8500000000      0.0249371735
|138>      3      20.1679000000      0.0935735485
|139>      4       8.6009500000      0.2242279312
|140>      5       3.7610800000      0.3431560463
|141>      6       1.6056100000      0.3620968096
|142>      7       0.6490060000      0.2647171316
|143>     d 7 
|144>      1     162.5730000000      0.0042479207
|145>      2      50.8500000000      0.0409212724
|146>      3      20.1679000000      0.1587079485
|147>      4       8.6009500000      0.3924916169
|148>      5       3.7610800000      0.4348773967
|149>      6       1.6056100000     -0.1362343730
|150>      7       0.6490060000     -0.6496612963
|151>     d 7 
|152>      1     162.5730000000      0.0048783485
|153>      2      50.8500000000      0.0488879693
|154>      3      20.1679000000      0.1934141469
|155>      4       8.6009500000      0.5239108466
|156>      5       3.7610800000      0.0216379134
|157>      6       1.6056100000     -0.9179701931
|158>      7       0.6490060000     -0.0247904651
|159>     d 1 
|160>      1       0.2359550000      1.0000000000
|161>     d 1 
|162>      1       0.0858000000      1.0000000000
|163>   end
|164>   NewAuxGTO 30
|165>     S 1
|166>      1 1310.72 1.0
|167>     S 1
|168>      1  655.36 1.0
|169>     S 1
|170>      1  327.68 1.0
|171>     S 1
|172>      1  163.84 1.0
|173>     S 1
|174>      1   81.82 1.0
|175>     S 1
|176>      1   40.96 1.0
|177>     S 1
|178>      1   20.48 1.0
|179>     S 1
|180>      1   10.24 1.0
|181>     S 1
|182>      1    5.12 1.0
|183>     S 1
|184>      1    2.56 1.0
|185>     S 1
|186>      1    1.28 1.0
|187>     S 1
|188>      1    0.64 1.0
|189>     S 1
|190>      1    0.32 1.0
|191>     S 1
|192>      1    0.16 1.0
|193>     S 1
|194>      1    0.08 1.0
|195>     S 1
|196>      1    0.04 1.0
|197>     S 1
|198>      1    0.02 1.0
|199>     S 1
|200>      1    0.01 1.0
|201>   end
|202> end
|203> 
|204> * xyz 0 1
|205> 30  0.0 0.0 0.0
|206> *
|207> 
|208> 
|209>                          ****END OF INPUT****
================================================================================

                       ****************************
                       * Single Point Calculation *
                       ****************************

---------------------------------
CARTESIAN COORDINATES (ANGSTROEM)
---------------------------------
  Zn     0.000000    0.000000    0.000000

----------------------------
CARTESIAN COORDINATES (A.U.)
----------------------------
  NO LB      ZA    FRAG     MASS         X           Y           Z
   0 Zn   20.0000*   0    65.380    0.000000    0.000000    0.000000
* core charge reduced due to ECP

--------------------------------
INTERNAL COORDINATES (ANGSTROEM)
--------------------------------
 Zn     0   0   0     0.000000000000     0.00000000     0.00000000

---------------------------
INTERNAL COORDINATES (A.U.)
---------------------------
 Zn     0   0   0     0.000000000000     0.00000000     0.00000000

---------------------
BASIS SET INFORMATION
---------------------
There are 1 groups of distinct atoms

 Group   1 Type Zn  : 38s34p23d contracted to 6s6p5d pattern {999911/888811/77711}

Atom   0Zn   basis set group =>   1
---------------------------------
AUXILIARY/J BASIS SET INFORMATION
---------------------------------
There are 1 groups of distinct atoms

 Group   1 Type Zn  : 18s contracted to 18s pattern {111111111111111111}

Atom   0Zn   basis set group =>   1
-------------------------
ECP PARAMETER INFORMATION
-------------------------

 Group 1, Type Zn ECP (replacing 10 core electrons, lmax=4)

Atom   0Zn   ECP group =>   1

------------------------------------------------------------------------------
                             ORCA STARTUP CALCULATIONS
------------------------------------------------------------------------------
------------------------------------------------------------------------------
                   ___                                                        
                  /   \      - P O W E R E D   B Y -                         
                 /     \                                                     
                 |  |  |   _    _      __       _____    __    __             
                 |  |  |  | |  | |    /  \     |  _  \  |  |  /  |          
                  \  \/   | |  | |   /    \    | | | |  |  | /  /          
                 / \  \   | |__| |  /  /\  \   | |_| |  |  |/  /          
                |  |  |   |  __  | /  /__\  \  |    /   |      \           
                |  |  |   | |  | | |   __   |  |    \   |  |\   \          
                \     /   | |  | | |  |  |  |  | |\  \  |  | \   \       
                 \___/    |_|  |_| |__|  |__|  |_| \__\ |__|  \__/        
                                                                              
                      - O R C A' S   B I G   F R I E N D -                    
                                      &                                       
                       - I N T E G R A L  F E E D E R -                       
                                                                              
 v1 FN, 2020, v2 2021, v3 2022-2024                                           
------------------------------------------------------------------------------


----------------------
SHARK INTEGRAL PACKAGE
----------------------

Number of atoms                             ...      1
Number of basis functions                   ...     86
Number of shells                            ...     30
Maximum angular momentum                    ...      2
Integral batch strategy                     ... SHARK/LIBINT Hybrid
RI-J (if used) integral strategy            ... SPLIT-RIJ (Revised 2003 algorithm where possible)
Printlevel                                  ...      1
Contraction scheme used                     ... PARTIAL GENERAL contraction
Prescreening option                         ... SCHWARTZ
   Thresh                                   ... 1.000e-10
   Tcut                                     ... 1.000e-11
   Tpresel                                  ... 1.000e-11 
Coulomb Range Separation                    ... NOT USED
Exchange Range Separation                   ... NOT USED
Multipole approximations                    ... NOT USED
Finite Nucleus Model                        ... NOT USED
CABS basis                                  ... NOT available
Auxiliary Coulomb fitting basis             ... AVAILABLE
   # of basis functions in Aux-J            ...     18
   # of shells in Aux-J                     ...     18
   Maximum angular momentum in Aux-J        ...      0
Auxiliary J/K fitting basis                 ... NOT available
Auxiliary Correlation fitting basis         ... NOT available
Auxiliary 'external' fitting basis          ... NOT available

Checking pre-screening integrals            ... done (  0.0 sec) Dimension = 30
Save PGC pre-screening integrals            ... done (  0.0 sec) Dimension = 30
Calculate PGC overlap integrals             ... done (  0.0 sec) Dimension = 17
Calculating pre-screening integrals (ORCA)  ... done (  0.1 sec) Dimension = 17
Shell pair information
Shell pair cut-off parameter TPreSel        ...   1.0e-11
Total number of shell pairs                 ...       465
Shell pairs after pre-screening             ...       465
Total number of primitive shell pairs       ...       465
Primitive shell pairs kept                  ...       465
          la=0 lb=0:     66 shell pairs
          la=1 lb=0:    110 shell pairs
          la=1 lb=1:     55 shell pairs
          la=2 lb=0:     99 shell pairs
          la=2 lb=1:     90 shell pairs
          la=2 lb=2:     45 shell pairs

Checking whether 4 symmetric matrices of dimension 86 fit in memory
:Max Core in MB      =   4096.00
 MB in use           =      1.67
 MB left             =   4094.33
 MB needed           =      0.11
 Data fit in memory  = YES
Calculating RI/J V-Matrix + Cholesky decomp.... done (  0.0 sec)
Calculating Nuclear repulsion               ... done (  0.0 sec) ENN=      0.000000000000 Eh

Diagonalization of the overlap matrix:
Smallest eigenvalue                        ... 1.550e-03
Time for diagonalization                   ...    0.003 sec
Threshold for overlap eigenvalues          ... 1.000e-07
Number of eigenvalues below threshold      ... 0
Time for construction of square roots      ...    0.000 sec
Total time needed                          ...    0.003 sec

-------------------
DFT GRID GENERATION
-------------------

General Integration Accuracy     IntAcc      ... 4.388
Radial Grid Type                 RadialGrid  ... OptM3 with GC (2021)
Angular Grid (max. ang.)         AngularGrid ... 4 (Lebedev-302)
Angular grid pruning method      GridPruning ... 4 (adaptive)
Weight generation scheme         WeightScheme... mBecke (2022)
Basis function cutoff            BFCut       ... 1.0000e-10
Integration weight cutoff        WCut        ... 1.0000e-14
Partially contracted basis set               ... off
Rotationally invariant grid construction     ... off
Angular grids for H and He will be reduced by one unit
Diffuse basis detected: some atoms will have their outermost
                        angular grid increased by 1.

Total number of grid points                  ...     9368
Total number of batches                      ...      147
Average number of points per batch           ...       63
Average number of grid points per atom       ...     9368

---------------------
SHARK GRID GENERATION
---------------------

General Integration Accuracy     IntAcc      ... 4.388
Radial Grid Type                 RadialGrid  ... OptM3 with GC (2021)
Angular Grid (max. ang.)         AngularGrid ... 4 (Lebedev-302)
Angular grid pruning method      GridPruning ... 4 (adaptive)
Weight generation scheme         WeightScheme... mBecke (2022)
Basis function cutoff            BFCut       ... 1.0000e-10
Integration weight cutoff        WCut        ... 1.0000e-14
Partially contracted basis set               ... off
Rotationally invariant grid construction     ... off
Angular grids for H and He will be reduced by one unit
Diffuse basis detected: some atoms will have their outermost
                        angular grid increased by 1.
Core-polarized basis detected: some atoms will have their core
                               angular grid increased.
Steep s-basis detected: some atoms will have their radial
                        grid points doubled.

Total number of grid points                  ...    22912
Total number of batches                      ...      359
Average number of points per batch           ...       63
Average number of grid points per atom       ...    22912
Grids setup in   0.3 sec
Initializing property integral containers    ... done (  0.0 sec)

SHARK setup successfully completed in   0.5 seconds

Maximum memory used throughout the entire STARTUP-calculation: 14.8 MB
-------------------------------------------------------------------------------
                                 ORCA GUESS
                   Start orbitals & Density for SCF / CASSCF
-------------------------------------------------------------------------------

------------
SCF SETTINGS
------------
Hamiltonian:
 Ab initio Hamiltonian  Method          .... Hartree-Fock(GTOs)


General Settings:
 Integral files         IntName         .... orc_job_atom30
 Hartree-Fock type      HFTyp           .... ROHF
 Total Charge           Charge          ....    0
 Multiplicity           Mult            ....    1
 Number of Electrons    NEL             ....   20
 Basis Dimension        Dim             ....   49
 Nuclear Repulsion      ENuc            ....      0.0000000000 Eh

Convergence Acceleration:
 AO-DIIS                CNVDIIS         .... on
   Start iteration      DIISMaxIt       ....    12
   Startup error        DIISStart       ....  0.200000
   # of expansion vecs  DIISMaxEq       ....     8
   Bias factor          DIISBfac        ....   1.050
   Max. coefficient     DIISMaxC        ....  10.000
 MO-DIIS                CNVKDIIS        .... off
 Trust-Rad. Augm. Hess. CNVTRAH         .... off
 SOSCF                 CNVSOSCF           .... on
   Start iteration     SOSCFMaxIt         ....   150
   Startup grad/error  SOSCFStart         ....  0.000100
   Hessian update      SOSCFHessUp        .... L-BFGS
   Autom. constraints  SOSCFAutoConstrain .... off
 Level Shifting         CNVShift        .... on
   Level shift para.    LevelShift      ....    1.0000
   Turn off err/grad.   ShiftErr        ....    0.0010
 Zerner damping         CNVZerner       .... off
 Static damping         CNVDamp         .... on
   Fraction old density DampFac         ....    0.7000
   Max. Damping (<1)    DampMax         ....    0.9800
   Min. Damping (>=0)   DampMin         ....    0.0000
   Turn off err/grad.   DampErr         ....    0.1000

SCF Procedure:
 Maximum # iterations   MaxIter         ....  1000
 SCF integral mode      SCFMode         .... Direct
   Integral package                     .... SHARK and LIBINT hybrid scheme
 Reset frequency        DirectResetFreq ....    20
 Integral Threshold     Thresh          ....  1.000e-10 Eh
 Primitive CutOff       TCut            ....  1.000e-11 Eh

Convergence Tolerance:
 Convergence Check Mode ConvCheckMode   .... Total+1el-Energy
 Convergence forced     ConvForced      .... -1
 Energy Change          TolE            ....  1.000e-06 Eh
 1-El. energy change                    ....  1.000e-03 Eh
 Orbital Gradient       TolG            ....  5.000e-05
 Orbital Rotation angle TolX            ....  5.000e-05
 DIIS Error             TolErr          ....  1.000e-06


--------------------
INITIAL GUESS: HCORE
--------------------

Orthogonalizing HCORE                      ... done
Diagonalizing the Hamiltonian (no sym.)    ... done
Back transforming and storing orbitals     ... done
AVERAGE-CONFIGURATION (SAHF) CASE FOUND

-------------------
FINAL ROHF SETTINGS
-------------------
Number of operators             ... 2
  operator   0:   5 orbitals  10 electrons n(mue)= 2.000
  operator   1:   5 orbitals  10 electrons n(mue)= 2.000
Vector coupling coefficients a and b (Zerner convention):
   1.000    1.000           1.000    1.000 
   1.000    1.000           1.000    1.000 


   => ROHF data were saved in the ROHF file

Making the density                         ... done

                      -----------------
                      INTIAL GUESS DONE 
                      -----------------

             **** ENERGY FILE WAS UPDATED (orc_job_atom30.en.tmp) ****
Finished Guess after   0.0 sec
Maximum memory used throughout the entire GUESS-calculation: 4.5 MB

-------------------------------------------------------------------------------------------
                                      ORCA LEAN-SCF
                              memory conserving SCF solver
-------------------------------------------------------------------------------------------

----------------------------------------D-I-I-S--------------------------------------------
Iteration    Energy (Eh)           Delta-E    RMSDP     MaxDP     DIISErr   Damp  Time(sec)
-------------------------------------------------------------------------------------------
               ***  Starting incremental Fock matrix formation  ***
    1    -183.8315635886968948     0.00e+00  9.51e-02  1.17e+00  4.56e+00  0.700   0.2
    2    -200.1706319278963520    -1.63e+01  4.60e-02  5.94e-01  2.52e+00  0.700   0.1
    3    -208.1321678369337178    -7.96e+00  3.28e-02  4.25e-01  5.12e-01  0.700   0.1
                               ***Turning on AO-DIIS***
    4    -213.5256695161227185    -5.39e+00  2.29e-02  3.04e-01  1.18e-01  0.700   0.1
    5    -217.2465413649698860    -3.72e+00  1.59e-02  2.16e-01  7.21e-02  0.700   0.1
    6    -219.8412178457923289    -2.59e+00  3.69e-02  5.05e-01  3.09e-02  0.000   0.1
    7    -225.9180007219900403    -6.08e+00  1.39e-03  3.60e-02  9.22e-02  0.000   0.1
    8    -225.8863789958426196     3.16e-02  3.38e-04  1.10e-02  1.16e-01  0.000   0.1
    9    -225.8966935870082864    -1.03e-02  1.29e-04  3.55e-03  1.08e-01  0.700   0.1
   10    -225.8997817622963566    -3.09e-03  8.74e-05  2.52e-03  9.83e-02  0.700   0.1
   11    -225.9019732241073370    -2.19e-03  2.25e-04  6.65e-03  9.89e-02  0.000   0.1
   12    -225.9077749583921104    -5.80e-03  8.47e-05  2.67e-03  9.99e-02  0.000   0.1
   13    -225.9099036258710953    -2.13e-03  2.20e-04  5.27e-03  9.78e-02  0.000   0.1
   14    -225.9133330670590567    -3.43e-03  3.33e-03  9.89e-02  9.35e-02  0.000   0.1
   15    -225.9594018917752294    -4.61e-02  7.94e-04  2.52e-02  2.05e-02  0.000   0.1
   16    -225.9622106543756104    -2.81e-03  2.96e-04  7.51e-03  7.89e-03  0.000   0.1
   17    -225.9627332399129500    -5.23e-04  3.80e-04  1.21e-02  4.80e-03  0.000   0.1
   18    -225.9629871375973948    -2.54e-04  1.81e-04  6.17e-03  1.87e-03  0.000   0.1
   19    -225.9630141558056380    -2.70e-05  1.07e-04  3.46e-03  7.62e-04  0.000   0.1
   20    -225.9630193329547296    -5.18e-06  4.10e-05  1.31e-03  2.23e-04  0.000   0.1
               *** Restarting incremental Fock matrix formation ***
                             ****Resetting DIIS****
                              *** Initializing SOSCF ***
---------------------------------------S-O-S-C-F--------------------------------------
Iteration    Energy (Eh)           Delta-E    RMSDP     MaxDP     MaxGrad    Time(sec)
--------------------------------------------------------------------------------------
   21    -225.9630198190940860    -4.86e-07  1.57e-06  4.92e-05  2.06e-05     0.1
               *** Restarting incremental Fock matrix formation ***
   22    -225.9630198227097821    -3.62e-09  1.57e-06  5.10e-05  1.24e-05     0.1
                  *** Gradient check signals convergence ***

               *****************************************************
               *                     SUCCESS                       *
               *           SCF CONVERGED AFTER  22 CYCLES          *
               *****************************************************

             **** ENERGY FILE WAS UPDATED (orc_job_atom30.en.tmp) ****

----------------
TOTAL SCF ENERGY
----------------

Total Energy       :       -225.96301982433675 Eh           -6148.76637 eV

Components:
Nuclear Repulsion  :          0.00000000000000 Eh               0.00000 eV
Electronic Energy  :       -225.96301982433675 Eh           -6148.76637 eV
One Electron Energy:       -408.35734796348606 Eh          -11111.96836 eV
Two Electron Energy:        182.39432813914931 Eh            4963.20199 eV

Virial components:
Potential Energy   :       -379.41538733719005 Eh          -10324.41757 eV
Kinetic Energy     :        153.45236751285333 Eh            4175.65121 eV
Virial Ratio       :          2.47252872983801

---------------
SCF CONVERGENCE
---------------

  Last Energy change         ...    3.6157e-09  Tolerance :   1.0000e-06
  Last MAX-Density change    ...    5.0952e-05  Tolerance :   1.0000e-05
  Last RMS-Density change    ...    1.5684e-06  Tolerance :   1.0000e-06
  Last DIIS Error            ...    2.0600e-05  Tolerance :   1.0000e-06
  Last Orbital Gradient      ...    1.2411e-05  Tolerance :   5.0000e-05
  Last Orbital Rotation      ...    3.6204e-05  Tolerance :   5.0000e-05


----------------
ORBITAL ENERGIES
----------------

  NO   OCC          E(Eh)            E(eV) 
   0   2.0000      -5.864995      -159.5946 
   1   2.0000      -3.935777      -107.0979 
   2   2.0000      -3.935777      -107.0979 
   3   2.0000      -3.935777      -107.0979 
   4   2.0000      -0.762575       -20.7507 
   5   2.0000      -0.762575       -20.7507 
   6   2.0000      -0.762575       -20.7507 
   7   2.0000      -0.762575       -20.7507 
   8   2.0000      -0.762575       -20.7507 
   9   2.0000      -0.299143        -8.1401 
  10   0.0000       0.025991         0.7073 
  11   0.0000       0.025991         0.7073 
  12   0.0000       0.025991         0.7073 
  13   0.0000       0.043666         1.1882 
  14   0.0000       0.085247         2.3197 
  15   0.0000       0.085247         2.3197 
  16   0.0000       0.085247         2.3197 
  17   0.0000       0.253052         6.8859 
  18   0.0000       0.253052         6.8859 
  19   0.0000       0.253052         6.8859 
  20   0.0000       0.253052         6.8859 
*Only the first 10 virtual orbitals were printed.

Warning: MO coefficients are modified such that the real solid harmonic m components
have the correct order within each shell (0, +1, -1, +2, -2, ...) and all s orbitals
come before all p orbitals etc. (with increasing orbital energy within each block of given angular momentum).

--------------------------
ATOM BASIS FOR ELEMENT Zn
--------------------------
 NewGTO Zn
 S 38
    1       2203.410000000000        -0.000149922338
    2        315.582000000000        -0.000829570463
    3         66.455600000000         0.013193168431
    4         41.666600000000        -0.063054349777
    5         11.832800000000         0.414510362235
    6          2.539960000000        -0.738395651042
    7          1.059500000000        -0.471644777469
    8          0.199751000000        -0.023371897790
    9          0.101630000000         0.012693427171
   10       2203.410000000000        -0.000000423065
   11        315.582000000000        -0.000001658861
   12         66.455600000000         0.000023413317
   13         41.666600000000        -0.000141303769
   14         11.832800000000         0.001081154186
   15          2.539960000000        -0.002358187549
   16          1.059500000000        -0.002753408355
   17          0.199751000000         0.002872089270
   18          0.101630000000         0.006018291373
   19       2203.410000000000         0.000000058153
   20        315.582000000000         0.000000133795
   21         66.455600000000        -0.000001160430
   22         41.666600000000         0.000013978070
   23         11.832800000000        -0.000136991552
   24          2.539960000000         0.000539322447
   25          1.059500000000        -0.000241919112
   26          0.199751000000        -0.000902203520
   27          0.101630000000         0.000702518124
   28       2203.410000000000        -0.000000081274
   29        315.582000000000         0.000000472916
   30         66.455600000000        -0.000009475534
   31         41.666600000000         0.000009508008
   32         11.832800000000         0.000068604943
   33          2.539960000000        -0.000447526556
   34          1.059500000000         0.000531052576
   35          0.199751000000        -0.000346277454
   36          0.101630000000         0.000074999158
   37          0.042566000000        -0.001976871175
   38          0.017800000000         0.001301512514
 S 38
    1       2203.410000000000         0.000001432405
    2        315.582000000000         0.000007925975
    3         66.455600000000        -0.000126051649
    4         41.666600000000         0.000602440937
    5         11.832800000000        -0.003960361369
    6          2.539960000000         0.007054862502
    7          1.059500000000         0.004506241404
    8          0.199751000000         0.000223302406
    9          0.101630000000        -0.000121276965
   10       2203.410000000000        -0.000038029656
   11        315.582000000000        -0.000149116248
   12         66.455600000000         0.002104640282
   13         41.666600000000        -0.012701899442
   14         11.832800000000         0.097185743064
   15          2.539960000000        -0.211979209027
   16          1.059500000000        -0.247505897290
   17          0.199751000000         0.258174211754
   18          0.101630000000         0.540988627244
   19       2203.410000000000        -0.000000012870
   20        315.582000000000        -0.000000029610
   21         66.455600000000         0.000000256810
   22         41.666600000000        -0.000003093428
   23         11.832800000000         0.000030317029
   24          2.539960000000        -0.000119355202
   25          1.059500000000         0.000053538110
   26          0.199751000000         0.000199662899
   27          0.101630000000        -0.000155471357
   28       2203.410000000000         0.000000026738
   29        315.582000000000        -0.000000155582
   30         66.455600000000         0.000003117301
   31         41.666600000000        -0.000003127984
   32         11.832800000000        -0.000022569941
   33          2.539960000000         0.000147229157
   34          1.059500000000        -0.000174707896
   35          0.199751000000         0.000113919804
   36          0.101630000000        -0.000024673536
   37          0.042566000000         0.338928384938
   38          0.017800000000         0.002575177732
 S 38
    1       2203.410000000000        -0.000004097995
    2        315.582000000000        -0.000022675580
    3         66.455600000000         0.000360623675
    4         41.666600000000        -0.001723535289
    5         11.832800000000         0.011330276808
    6          2.539960000000        -0.020183396804
    7          1.059500000000        -0.012891995884
    8          0.199751000000        -0.000638850305
    9          0.101630000000         0.000346963687
   10       2203.410000000000        -0.000009546908
   11        315.582000000000        -0.000037433920
   12         66.455600000000         0.000528345747
   13         41.666600000000        -0.003188665828
   14         11.832800000000         0.024397363503
   15          2.539960000000        -0.053214943413
   16          1.059500000000        -0.062133510069
   17          0.199751000000         0.064811667767
   18          0.101630000000         0.135808975407
   19       2203.410000000000         0.000003227240
   20        315.582000000000         0.000007425076
   21         66.455600000000        -0.000064399182
   22         41.666600000000         0.000775726247
   23         11.832800000000        -0.007602476335
   24          2.539960000000         0.029930211506
   25          1.059500000000        -0.013425530954
   26          0.199751000000        -0.050068641397
   27          0.101630000000         0.038986910673
   28       2203.410000000000        -0.000005810962
   29        315.582000000000         0.000033812694
   30         66.455600000000        -0.000677484574
   31         41.666600000000         0.000679806422
   32         11.832800000000         0.004905137016
   33          2.539960000000        -0.031997389494
   34          1.059500000000         0.037969358223
   35          0.199751000000        -0.024758250433
   36          0.101630000000         0.005362312543
   37          0.042566000000         1.242213931640
   38          0.017800000000        -1.872994825778
 S 38
    1       2203.410000000000        -0.000042706636
    2        315.582000000000        -0.000236310106
    3         66.455600000000         0.003758184714
    4         41.666600000000        -0.017961560541
    5         11.832800000000         0.118076754298
    6          2.539960000000        -0.210338196113
    7          1.059500000000        -0.134351971817
    8          0.199751000000        -0.006657681169
    9          0.101630000000         0.003615829224
   10       2203.410000000000         0.000040499611
   11        315.582000000000         0.000158801067
   12         66.455600000000        -0.002241332692
   13         41.666600000000         0.013526863814
   14         11.832800000000        -0.103497773469
   15          2.539960000000         0.225746858174
   16          1.059500000000         0.263580937721
   17          0.199751000000        -0.274942139055
   18          0.101630000000        -0.576124816527
   19       2203.410000000000         0.000087589737
   20        315.582000000000         0.000201522205
   21         66.455600000000        -0.001747842768
   22         41.666600000000         0.021053800067
   23         11.832800000000        -0.206336987351
   24          2.539960000000         0.812328694119
   25          1.059500000000        -0.364379116582
   26          0.199751000000        -1.358900991195
   27          0.101630000000         1.058134394676
   28       2203.410000000000        -0.000132168766
   29        315.582000000000         0.000769060642
   30         66.455600000000        -0.015409204780
   31         41.666600000000         0.015462014591
   32         11.832800000000         0.111566024830
   33          2.539960000000        -0.727772035588
   34          1.059500000000         0.863602861379
   35          0.199751000000        -0.563119760694
   36          0.101630000000         0.121964359491
   37          0.042566000000         2.091835113380
   38          0.017800000000        -1.198180752526
 S 38
    1       2203.410000000000         0.000203677771
    2        315.582000000000         0.001127017259
    3         66.455600000000        -0.017923647472
    4         41.666600000000         0.085662814275
    5         11.832800000000        -0.563135204796
    6          2.539960000000         1.003151245551
    7          1.059500000000         0.640755461260
    8          0.199751000000         0.031752013092
    9          0.101630000000        -0.017244721389
   10       2203.410000000000        -0.000217774779
   11        315.582000000000        -0.000853906167
   12         66.455600000000         0.012052109260
   13         41.666600000000        -0.072736743285
   14         11.832800000000         0.556528925189
   15          2.539960000000        -1.213887527562
   16          1.059500000000        -1.417329195147
   17          0.199751000000         1.478420723545
   18          0.101630000000         3.097942247161
   19       2203.410000000000         0.000268744577
   20        315.582000000000         0.000618314446
   21         66.455600000000        -0.005362766016
   22         41.666600000000         0.064597688984
   23         11.832800000000        -0.633087257059
   24          2.539960000000         2.492403089690
   25          1.059500000000        -1.117995267878
   26          0.199751000000        -4.169407105225
   27          0.101630000000         3.246589039254
   28       2203.410000000000        -0.000156914416
   29        315.582000000000         0.000913050070
   30         66.455600000000        -0.018294234202
   31         41.666600000000         0.018356931471
   32         11.832800000000         0.132454271094
   33          2.539960000000        -0.864031094085
   34          1.059500000000         1.025293208153
   35          0.199751000000        -0.668551358311
   36          0.101630000000         0.144799461668
   37          0.042566000000        -5.074108007226
   38          0.017800000000         1.867957698827
 S 38
    1       2203.410000000000        -0.000192873272
    2        315.582000000000        -0.001067232353
    3         66.455600000000         0.016972851402
    4         41.666600000000        -0.081118657328
    5         11.832800000000         0.533262560820
    6          2.539960000000        -0.949937062249
    7          1.059500000000        -0.606765294056
    8          0.199751000000        -0.030067663446
    9          0.101630000000         0.016329940324
   10       2203.410000000000         0.000210472870
   11        315.582000000000         0.000825275006
   12         66.455600000000        -0.011648006458
   13         41.666600000000         0.070297906967
   14         11.832800000000        -0.537868714497
   15          2.539960000000         1.173186324092
   16          1.059500000000         1.369806667197
   17          0.199751000000        -1.428849819061
   18          0.101630000000        -2.994069380131
   19       2203.410000000000        -0.000190520380
   20        315.582000000000        -0.000438340021
   21         66.455600000000         0.003801811492
   22         41.666600000000        -0.045795068371
   23         11.832800000000         0.448812870518
   24          2.539960000000        -1.766932713774
   25          1.059500000000         0.792577420896
   26          0.199751000000         2.955806723936
   27          0.101630000000        -2.301595759277
   28       2203.410000000000         0.000756128506
   29        315.582000000000        -0.004399743521
   30         66.455600000000         0.088155010428
   31         41.666600000000        -0.088457131759
   32         11.832800000000        -0.638261624970
   33          2.539960000000         4.163534218878
   34          1.059500000000        -4.940613116533
   35          0.199751000000         3.221569775047
   36          0.101630000000        -0.697749788936
   37          0.042566000000         3.661169269709
   38          0.017800000000        -1.229294189699
 P 34
    1        558.251000000000        -0.000127992820
    2         87.550100000000        -0.002504859072
    3         19.674400000000         0.079987499565
    4          4.659690000000        -0.361861640087
    5          2.139980000000        -0.489387464970
    6          0.953437000000        -0.256896545924
    7          0.324655000000        -0.027668443266
    8          0.119348000000         0.003016830254
    9        558.251000000000        -0.000000063374
   10         87.550100000000        -0.000000883153
   11         19.674400000000         0.000032492665
   12          4.659690000000        -0.000167341108
   13          2.139980000000        -0.000237752104
   14          0.953437000000        -0.000108543981
   15          0.324655000000         0.000491848668
   16          0.119348000000         0.001139457286
   17        558.251000000000         0.000000079884
   18         87.550100000000         0.000000861245
   19         19.674400000000        -0.000036053706
   20          4.659690000000         0.000203554592
   21          2.139980000000         0.000253421916
   22          0.953437000000         0.000024486813
   23          0.324655000000        -0.000692902672
   24          0.119348000000        -0.000660392552
   25        558.251000000000        -0.000000032298
   26         87.550100000000        -0.000000066001
   27         19.674400000000         0.000008905876
   28          4.659690000000        -0.000071919188
   29          2.139980000000        -0.000043850418
   30          0.953437000000         0.000118312270
   31          0.324655000000         0.000044792566
   32          0.119348000000        -0.000096077888
   33          0.042836000000        -0.001677437589
   34          0.015400000000         0.000518794036
 P 34
    1        558.251000000000        -0.000000226940
    2         87.550100000000        -0.000004441289
    3         19.674400000000         0.000141823378
    4          4.659690000000        -0.000641605758
    5          2.139980000000        -0.000867717881
    6          0.953437000000        -0.000455495374
    7          0.324655000000        -0.000049058067
    8          0.119348000000         0.000005349049
    9        558.251000000000        -0.000019584565
   10         87.550100000000        -0.000272920378
   11         19.674400000000         0.010041194983
   12          4.659690000000        -0.051713354441
   13          2.139980000000        -0.073472435665
   14          0.953437000000        -0.033543302318
   15          0.324655000000         0.151995793337
   16          0.119348000000         0.352126020130
   17        558.251000000000         0.000017348692
   18         87.550100000000         0.000187040516
   19         19.674400000000        -0.007829949133
   20          4.659690000000         0.044206887170
   21          2.139980000000         0.055036803335
   22          0.953437000000         0.005317913887
   23          0.324655000000        -0.150480860910
   24          0.119348000000        -0.143420488563
   25        558.251000000000        -0.000005047184
   26         87.550100000000        -0.000010313810
   27         19.674400000000         0.001391706052
   28          4.659690000000        -0.011238688365
   29          2.139980000000        -0.006852429687
   30          0.953437000000         0.018488455763
   31          0.324655000000         0.006999657498
   32          0.119348000000        -0.015013926936
   33          0.042836000000        -0.127763751238
   34          0.015400000000         1.021340309617
 P 34
    1        558.251000000000        -0.000009620246
    2         87.550100000000        -0.000188271180
    3         19.674400000000         0.006012051164
    4          4.659690000000        -0.027198383576
    5          2.139980000000        -0.036783528607
    6          0.953437000000        -0.019308956854
    7          0.324655000000        -0.002079626160
    8          0.119348000000         0.000226752154
    9        558.251000000000         0.000021444053
   10         87.550100000000         0.000298833252
   11         19.674400000000        -0.010994572741
   12          4.659690000000         0.056623363858
   13          2.139980000000         0.080448396806
   14          0.953437000000         0.036728126278
   15          0.324655000000        -0.166427283708
   16          0.119348000000        -0.385559203756
   17        558.251000000000        -0.000037818051
   18         87.550100000000        -0.000407725704
   19         19.674400000000         0.017068342204
   20          4.659690000000        -0.096365667917
   21          2.139980000000        -0.119973575454
   22          0.953437000000        -0.011592409157
   23          0.324655000000         0.328030078541
   24          0.119348000000         0.312639320664
   25        558.251000000000         0.000013474450
   26         87.550100000000         0.000027534742
   27         19.674400000000        -0.003715432684
   28          4.659690000000         0.030003886242
   29          2.139980000000         0.018293907094
   30          0.953437000000        -0.049358564406
   31          0.324655000000        -0.018686960657
   32          0.119348000000         0.040082627190
   33          0.042836000000         1.423608885846
   34          0.015400000000        -1.107125774220
 P 34
    1        558.251000000000         0.000025712894
    2         87.550100000000         0.000503209295
    3         19.674400000000        -0.016068949237
    4          4.659690000000         0.072695563144
    5          2.139980000000         0.098314641345
    6          0.953437000000         0.051608783598
    7          0.324655000000         0.005558403660
    8          0.119348000000        -0.000606060853
    9        558.251000000000        -0.000215346162
   10         87.550100000000        -0.003000952896
   11         19.674400000000         0.110410052145
   12          4.659690000000        -0.568624966462
   13          2.139980000000        -0.807881478935
   14          0.953437000000        -0.368832371482
   15          0.324655000000         1.671301423462
   16          0.119348000000         3.871875041810
   17        558.251000000000         0.000223760200
   18         87.550100000000         0.002412413715
   19         19.674400000000        -0.100989224827
   20          4.659690000000         0.570172192848
   21          2.139980000000         0.709854433421
   22          0.953437000000         0.068589462327
   23          0.324655000000        -1.940874102211
   24          0.119348000000        -1.849810735372
   25        558.251000000000        -0.000067113635
   26         87.550100000000        -0.000137145240
   27         19.674400000000         0.018505853761
   28          4.659690000000        -0.149443571777
   29          2.139980000000        -0.091118423656
   30          0.953437000000         0.245845491582
   31          0.324655000000         0.093076147659
   32          0.119348000000        -0.199643836971
   33          0.042836000000        -1.938401352962
   34          0.015400000000         0.730834915703
 P 34
    1        558.251000000000        -0.000036200685
    2         87.550100000000        -0.000708458602
    3         19.674400000000         0.022623161827
    4          4.659690000000        -0.102346672756
    5          2.139980000000        -0.138415275839
    6          0.953437000000        -0.072659005004
    7          0.324655000000        -0.007825568656
    8          0.119348000000         0.000853261315
    9        558.251000000000         0.000501717640
   10         87.550100000000         0.006991677928
   11         19.674400000000        -0.257235468642
   12          4.659690000000         1.324793412257
   13          2.139980000000         1.882217848852
   14          0.953437000000         0.859312771661
   15          0.324655000000        -3.893830285848
   16          0.119348000000        -9.020769137853
   17        558.251000000000        -0.000738396935
   18         87.550100000000        -0.007960838861
   19         19.674400000000         0.333259150611
   20          4.659690000000        -1.881538362293
   21          2.139980000000        -2.342482437546
   22          0.953437000000        -0.226341631941
   23          0.324655000000         6.404782845417
   24          0.119348000000         6.104278506103
   25        558.251000000000         0.000251675768
   26         87.550100000000         0.000514293905
   27         19.674400000000        -0.069396850841
   28          4.659690000000         0.560412580455
   29          2.139980000000         0.341693592578
   30          0.953437000000        -0.921919254824
   31          0.324655000000        -0.349035046931
   32          0.119348000000         0.748663301596
   33          0.042836000000         1.127104371740
   34          0.015400000000        -0.358964053000
 P 34
    1        558.251000000000        -0.000034503645
    2         87.550100000000        -0.000675247010
    3         19.674400000000         0.021562618233
    4          4.659690000000        -0.097548797511
    5          2.139980000000        -0.131926552683
    6          0.953437000000        -0.069252847949
    7          0.324655000000        -0.007458716456
    8          0.119348000000         0.000813261564
    9        558.251000000000         0.000555474296
   10         87.550100000000         0.007740802925
   11         19.674400000000        -0.284797024182
   12          4.659690000000         1.466738717869
   13          2.139980000000         2.083888528454
   14          0.953437000000         0.951384043198
   15          0.324655000000        -4.311035659012
   16          0.119348000000        -9.987301595125
   17        558.251000000000        -0.000817204795
   18         87.550100000000        -0.008810485766
   19         19.674400000000         0.368827337697
   20          4.659690000000        -2.082351778390
   21          2.139980000000        -2.592491637390
   22          0.953437000000        -0.250498692582
   23          0.324655000000         7.088354516517
   24          0.119348000000         6.755777855884
   25        558.251000000000         0.000734568022
   26         87.550100000000         0.001501073624
   27         19.674400000000        -0.202549128930
   28          4.659690000000         1.635680562413
   29          2.139980000000         0.997303749367
   30          0.953437000000        -2.690812907885
   31          0.324655000000        -1.018731309354
   32          0.119348000000         2.185129408085
   33          0.042836000000         0.488137320016
   34          0.015400000000        -0.157464911995
 D 23
    1        162.573000000000         0.002508500063
    2         50.850000000000         0.024151442073
    3         20.167900000000         0.090625191993
    4          8.600950000000         0.217162858958
    5          3.761080000000         0.332343734719
    6          1.605610000000         0.350687704121
    7          0.649006000000         0.256376307830
    8        162.573000000000        -0.000003091841
    9         50.850000000000        -0.000029784470
   10         20.167900000000        -0.000115515277
   11          8.600950000000        -0.000285674272
   12          3.761080000000        -0.000316524681
   13          1.605610000000         0.000099157928
   14          0.649006000000         0.000472854732
   15        162.573000000000         0.000001828886
   16         50.850000000000         0.000018328032
   17         20.167900000000         0.000072510695
   18          8.600950000000         0.000196413449
   19          3.761080000000         0.000008112024
   20          1.605610000000        -0.000344145750
   21          0.649006000000        -0.000009293911
   22          0.235955000000         0.093806403251
   23          0.085800000000         0.003574798887
 D 23
    1        162.573000000000         0.000142605875
    2         50.850000000000         0.001372986825
    3         20.167900000000         0.005151957148
    4          8.600950000000         0.012345504809
    5          3.761080000000         0.018893429544
    6          1.605610000000         0.019936266996
    7          0.649006000000         0.014574752591
    8        162.573000000000         0.000282011642
    9         50.850000000000         0.002716688009
   10         20.167900000000         0.010536328795
   11          8.600950000000         0.026056796549
   12          3.761080000000         0.028870710511
   13          1.605610000000        -0.009044349452
   14          0.649006000000        -0.043129818561
   15        162.573000000000        -0.000155035399
   16         50.850000000000        -0.001553674529
   17         20.167900000000        -0.006146760398
   18          8.600950000000        -0.016650046006
   19          3.761080000000        -0.000687659467
   20          1.605610000000         0.029173371856
   21          0.649006000000         0.000787848519
   22          0.235955000000         0.228631562276
   23          0.085800000000        -1.127007898495
 D 23
    1        162.573000000000         0.001362985325
    2         50.850000000000         0.013122607255
    3         20.167900000000         0.049240902400
    4          8.600950000000         0.117994730910
    5          3.761080000000         0.180577883971
    6          1.605610000000         0.190545019898
    7          0.649006000000         0.139301230419
    8        162.573000000000        -0.000913531497
    9         50.850000000000        -0.008800275208
   10         20.167900000000        -0.034130747715
   11          8.600950000000        -0.084406814424
   12          3.761080000000        -0.093522037516
   13          1.605610000000         0.029297719861
   14          0.649006000000         0.139712131709
   15        162.573000000000         0.000541153356
   16         50.850000000000         0.005423123964
   17         20.167900000000         0.021455358243
   18          8.600950000000         0.058117232277
   19          3.761080000000         0.002400285559
   20          1.605610000000        -0.101830086707
   21          0.649006000000        -0.002749996928
   22          0.235955000000        -1.494500518404
   23          0.085800000000         0.778461878747
 D 23
    1        162.573000000000        -0.002413648126
    2         50.850000000000        -0.023238222616
    3         20.167900000000        -0.087198452985
    4          8.600950000000        -0.208951450812
    5          3.761080000000        -0.319777082836
    6          1.605610000000        -0.337427426171
    7          0.649006000000        -0.246682152427
    8        162.573000000000         0.008111315754
    9         50.850000000000         0.078138313994
   10         20.167900000000         0.303049509116
   11          8.600950000000         0.749454535566
   12          3.761080000000         0.830389295818
   13          1.605610000000        -0.260136686616
   14          0.649006000000        -1.240514661024
   15        162.573000000000        -0.003951067941
   16         50.850000000000        -0.039595303249
   17         20.167900000000        -0.156649824258
   18          8.600950000000        -0.424325435147
   19          3.761080000000        -0.017524960742
   20          1.605610000000         0.743481651825
   21          0.649006000000         0.020078272781
   22          0.235955000000         1.064510210075
   23          0.085800000000        -0.377283412183
 D 23
    1        162.573000000000         0.002836552889
    2         50.850000000000         0.027309882823
    3         20.167900000000         0.102476836234
    4          8.600950000000         0.245562654756
    5          3.761080000000         0.375806480817
    6          1.605610000000         0.396549410095
    7          0.649006000000         0.289904300714
    8        162.573000000000        -0.005896442622
    9         50.850000000000        -0.056801892443
   10         20.167900000000        -0.220298912812
   11          8.600950000000        -0.544808733956
   12          3.761080000000        -0.603643475990
   13          1.605610000000         0.189103851088
   14          0.649006000000         0.901780147900
   15        162.573000000000         0.009388544011
   16         50.850000000000         0.094086523624
   17         20.167900000000         0.372231961401
   18          8.600950000000         1.008283856971
   19          3.761080000000         0.041642884322
   20          1.605610000000        -1.766664181301
   21          0.649006000000        -0.047710074967
   22          0.235955000000        -0.574864534880
   23          0.085800000000         0.196399263093
 end
-------------------------------------------
RADIAL EXPECTATION VALUES <R**-3> TO <R**3>
-------------------------------------------
   0 :     0.000000     3.042139     1.636080     0.689509     0.534486     0.465310
   1 :     6.707165     3.000767     1.602034     0.723582     0.603734     0.578385
   2 :     6.707165     3.000767     1.602034     0.723582     0.603734     0.578385
   3 :     6.707165     3.000767     1.602034     0.723582     0.603734     0.578385
   4 :     9.371646     3.197746     1.529387     0.877480     1.013899     7.537361
   5 :     9.371651     3.197747     1.529387     0.877480     1.013898     7.537358
   6 :     9.371651     3.197747     1.529387     0.877480     1.013898     7.537358
   7 :     9.371649     3.197747     1.529387     0.877480     1.013898     7.537365
   8 :     9.371648     3.197746     1.529387     0.877480     1.013899     7.537367
   9 :     0.000000     0.262977     0.429950     2.851379     9.552737    37.062352
  10 :     0.018810     0.031973     0.146443     8.347540    79.184788   823.388203
  11 :     0.018810     0.031973     0.146443     8.347540    79.184785   823.388161
  12 :     0.018810     0.031973     0.146443     8.347540    79.184785   823.388162
  13 :     0.000000     0.034199     0.143248     8.230406    73.471997   696.848215
  14 :     0.070990     0.081675     0.222211     6.644198    59.786282   647.861428
  15 :     0.070990     0.081675     0.222211     6.644198    59.786282   647.861428
  16 :     0.070990     0.081675     0.222211     6.644198    59.786279   647.861384
  17 :     0.124872     0.091243     0.241404     4.622443    22.679853   585.080635
  18 :     0.124872     0.091243     0.241404     4.622443    22.679853   585.080635
  19 :     0.124872     0.091243     0.241404     4.622443    22.679853   585.080644
  20 :     0.124872     0.091243     0.241404     4.622443    22.679853   585.080635
  21 :     0.124873     0.091243     0.241404     4.622443    22.679853   585.080635
  22 :     0.200497     0.159842     0.302211     4.941309    34.141573   304.990113
  23 :     0.200497     0.159842     0.302211     4.941309    34.141573   304.990112
  24 :     0.200497     0.159842     0.302211     4.941309    34.141573   304.990112
  25 :     0.000000     0.289515     0.379936     4.239345    25.967290   208.766374
  26 :     1.284215     0.497426     0.477926     2.976315    10.938115   240.465843
  27 :     1.284215     0.497426     0.477926     2.976315    10.938115   240.465843
  28 :     1.284217     0.497426     0.477926     2.976315    10.938115   240.465835
  29 :     1.284216     0.497426     0.477926     2.976315    10.938115   240.465837
  30 :     1.284217     0.497426     0.477926     2.976315    10.938115   240.465836
  31 :     0.669196     0.438468     0.515984     2.931046    13.120548    88.922077
  32 :     0.669196     0.438468     0.515984     2.931046    13.120548    88.922076
  33 :     0.669196     0.438468     0.515984     2.931046    13.120548    88.922076
  34 :     0.000000     0.842479     0.529233     4.669536    35.571572   338.255973
  35 :     4.564591     1.642827     0.966395     1.676227     4.119598    70.355681
  36 :     4.564591     1.642827     0.966395     1.676227     4.119598    70.355681
  37 :     4.564592     1.642827     0.966395     1.676227     4.119598    70.355680
  38 :     4.564592     1.642827     0.966395     1.676227     4.119598    70.355680
  39 :     4.564594     1.642828     0.966395     1.676227     4.119598    70.355678
  40 :     6.537755     2.409962     1.241544     1.378166     3.568092    18.448567
  41 :     6.537755     2.409962     1.241544     1.378166     3.568092    18.448567
  42 :     6.537755     2.409962     1.241544     1.378166     3.568092    18.448567
  43 :     0.000000     3.005457     1.175595     2.524259    15.537749   140.899684
  44 :    30.634949     6.924499     2.113447     0.871264     1.448144    20.675918
  45 :    30.634949     6.924499     2.113447     0.871264     1.448144    20.675918
  46 :    30.634950     6.924499     2.113447     0.871264     1.448144    20.675918
  47 :    30.634950     6.924499     2.113447     0.871264     1.448144    20.675918
  48 :    30.634950     6.924499     2.113447     0.871264     1.448144    20.675918
Making the total density                ... o.k.
Making exponents                        ... done
Making rho(0)                           ... done (         0.033271798)
Integral calculation                    ... Solving the equation system             ... done
atomic density will be written to file orc_job_atom30.adf

-------
TIMINGS
-------

Total SCF time: 0 days 0 hours 0 min 2 sec 

Total time                  ....       2.944 sec
Sum of individual times     ....       2.838 sec  ( 96.4%)

SCF preparation             ....       0.028 sec  (  1.0%)
Fock matrix formation       ....       2.754 sec  ( 93.6%)
  Startup                   ....       0.002 sec  (  0.1% of F)
  Coulomb+Exchange Fock     ....       2.824 sec  (102.6% of F)
Diagonalization             ....       0.000 sec  (  0.0%)
Density matrix formation    ....       0.010 sec  (  0.4%)
Total Energy calculation    ....       0.002 sec  (  0.1%)
Population analysis         ....       0.000 sec  (  0.0%)
Orbital Transformation      ....       0.001 sec  (  0.0%)
Orbital Orthonormalization  ....       0.000 sec  (  0.0%)
DIIS solution               ....       0.040 sec  (  1.3%)
SOSCF solution              ....       0.003 sec  (  0.1%)
Finished LeanSCF after   3.0 sec

Maximum memory used throughout the entire LEANSCF-calculation: 6.6 MB

-------------------------   --------------------
FINAL SINGLE POINT ENERGY      -225.963019824337
-------------------------   --------------------


------------------------------------------------------------------------------
                              ORCA PROPERTY CALCULATIONS
------------------------------------------------------------------------------

GBWName                                 ... orc_job_atom30.gbw
Number of atoms                         ...      1
Number of basis functions               ...     86
Max core memory                         ...   4096 MB

Electric properties:
Dipole moment                           ... YES
Quadrupole moment                       ...  NO
Static polarizability (Dipole/Dipole)   ...  NO
Static polarizability (Dipole/Quad.)    ...  NO
Static polarizability (Quad./Quad.)     ...  NO
Static polarizability (Velocity)        ...  NO
Static hyperpolarizability              ...  NO

Atomic electric properties:
Dipole moment                           ...  NO
Quadrupole moment                       ...  NO
Static polarizability                   ...  NO

Choice of electric origin               ... Center of mass
Position of electric origin             ...     0.000000     0.000000     0.000000

General magnetic properties:
Magnetizability                         ...  NO

EPR properties:
g-Tensor (aka g-matrix)                 ...  NO
Zero-Field splitting spin-orbit         ...  NO
Zero-field splitting spin-spin          ...  NO
Hyperfine couplings                     ...  NO (   0 nuclei)
Quadrupole couplings                    ...  NO (   0 nuclei)
Contact density                         ...  NO (   0 nuclei)

NMR properties:
Chemical shifts                         ...  NO (   0 nuclei)
Spin-rotation constants                 ...  NO (   0 nuclei)
Spin-spin couplings                     ...  NO (   0 nuclei,    0 pairs)

Choice of magnetic origin               ... GIAO
Position of magnetic origin             ...     0.000000     0.000000     0.000000

Properties with geometric perturbations:
SCF Hessian                             ...  NO
IR spectrum                             ...  NO
VCD spectrum                            ...  NO
X-ray spectroscopy properties:
SCF XES/XAS/RIXS spectra                ...  NO

SCF SOC stabilization energy            ...  NO
Diagonal Born-Oppenheimer correction    ...  NO

-------------
DIPOLE MOMENT
-------------

Method             : SCF
Type of density    : Electron Density
Multiplicity       :   1
Irrep              :   0
Energy             :  -225.9630198243367545 Eh
Basis              : AO
                                X                 Y                 Z
Electronic contribution:      0.000000000      -0.000000000      -0.000000000
Nuclear contribution   :      0.000000000       0.000000000       0.000000000
                        -----------------------------------------
Total Dipole Moment    :      0.000000000      -0.000000000      -0.000000000
                        -----------------------------------------
Magnitude (a.u.)       :      0.000000000
Magnitude (Debye)      :      0.000000000



--------------------
Rotational spectrum 
--------------------
 
Rotational constants in cm-1:             0.000000             0.000000             0.000000 
Rotational constants in MHz :             0.000000             0.000000             0.000000 

Dipole components along the rotational axes: 
x,y,z [a.u.] :     0.000000    -0.000000    -0.000000 
x,y,z [Debye]:     0.000000    -0.000000    -0.000000 

 

Dipole moment calculation done in   0.0 sec 

Maximum memory used throughout the entire PROP-calculation: 2.4 MB

--------------------------------
SUGGESTED CITATIONS FOR THIS RUN
--------------------------------

Below you find a list of papers that are relevant to this ORCA run
We neither can nor want to force you to cite these papers, but we appreciate if you do
You receive ORCA, which is the product of decades of hard work by many enthusiastic individuals, for free
The only thing we kindly ask in return is that you cite our papers,
We deeply appreciate it, if you show your appreciation for ORCA by not just citing the generic ORCA reference.

Please note that relegating all ORCA citations to the supporting information does *not* help us.
SI sections are not indexed - citations you put there will not count into any citation statistics
But we need these citations in order to attract the funding resources that allow us to do what we are doing

Therefore, if you are a happy ORCA user, please consider citing a few of the papers listed below in the main body of your paper

In addition to the list printed below, the program has created the file orc_job_atom30.bibtex that contains the list in bibtex format
You can import this file easily into all common literature databanks and citation aid programs

It goes without saying that in many instances, there are alternative algorithms to achieve similar
results as the ones you have gotten from ORCA. It is, of course, also the case that in some instances
ORCA just re-implements algorithms worked out by others. We are fully aware of that and we are also
fully appreciative of our colleagues work. Hence this citation list should not be read as indicating
that the listed papers, which are focused on our own work, are the only ones worth citing. It simply
meant to make it easier for users to cite ORCA specific papers. It is not a substitute for doing your
own literature research and citing the relevant literature in a scientifically appropriate manner.

List of essential papers. We consider these as the minimum necessary citations

  1. Neese, F.
     Software update: the ORCA program system, version 6.0
     WIRES Comput. Molec. Sci. 2025 15(1), e70019
     doi.org/10.1002/wcms.70019

List of papers to cite with high priority. The work reported in these papers was absolutely
necessary for this run to complete.
Our perspective: the developers of density functionals and basis sets usually get cited in chemistry papers
Good! But without the algorithms to do something with them, the functionals or basis sets would not do anything.
Hence, in our opinion, the algorithm design and method developments papers are equally worthy of getting cited

  1. Neese, F.
     The SHARK Integral Generation and Digestion System
     J. Comp. Chem. 2022 44(3), 381
     doi.org/10.1002/jcc.26942

List of suggested additional citations. These are papers that are important in the 'surrounding' of 
of this run, or papers that preceded the highly important papers. If you like your results we are grateful for a citation.

  1. Neese, F.
     The ORCA program system
     WIRES Comput. Molec. Sci. 2012 2(1), 73-78
     doi.org/10.1002/wcms.81
  2. Neese, F.
     Software update: the ORCA program system, version 4.0
     WIRES Comput. Molec. Sci. 2018 8(1), 1-6
     doi.org/10.1002/wcms.1327
  3. Neese, F.; Wennmohs, F.; Becker, U.; Riplinger, C.
     The ORCA quantum chemistry program package
     J. Chem. Phys. 2020 152(22), 224108
     doi.org/10.1063/5.0004608
  4. Neese, F.
     Software update: The ORCA program system—Version 5.0
     WIRES Comput. Molec. Sci. 2022 12(1), e1606
     doi.org/10.1002/wcms.1606

List of optional additional citations

  1. Neese, F.
     Approximate second-order SCF convergence for spin unrestricted wavefunctions
     Chem. Phys. Lett. 2000 325(1-3), 93-98
     doi.org/10.1016/s0009-2614(00)00662-x

Timings for individual modules:

Sum of individual times          ...        3.637 sec (=   0.061 min)
Startup calculation              ...        0.520 sec (=   0.009 min)  14.3 %
SCF iterations                   ...        3.055 sec (=   0.051 min)  84.0 %
Property calculations            ...        0.061 sec (=   0.001 min)   1.7 %
                             ****ORCA TERMINATED NORMALLY****
TOTAL RUN TIME: 0 days 0 hours 0 minutes 3 seconds 714 msec
