3
 energy: -76.437546213700 gnorm: 0.000166353447 xtb: 6.7.1 (edcfbbe)
O            2.53700000009169       -0.33344632757752       -0.00000000000000
H            3.30591959203252        0.24372188875307       -0.00000000000000
H            1.76808040787579        0.24372188882445        0.00000000000000
