[Molden Format]
[Title]
[Atoms] AU
H      1     1 -0.21110650603615E+01 -0.14546344390543E+01  0.12987927806361E+01
C      2     6 -0.13338218565333E+01 -0.29279546776747E-01 -0.98710593001199E-02
H      3     1 -0.21110509630056E+01 -0.36725738031820E+00 -0.19151416711791E+01
H      4     1 -0.19560445823724E+01  0.18433040022141E+01  0.62361906327074E+00
O      5     8  0.13641512405840E+01  0.66643076778972E-02  0.22896109072809E-02
H      6     1  0.19583070190199E+01 -0.16334113616679E+01 -0.55337840174021E+00
[GTO]
           1 0
 s           8   1.000000    
   337.005012218500       3.412172382408169E-002
   53.3105310515000       6.037121317998900E-002
   12.2082534814000       0.106953234949386     
   3.41882690980000       0.164794490016121     
   1.10879012580000       0.201608092762721     
  0.478717798300000       0.122975418239349     
  0.212137087700000       8.619887327933236E-002
  6.905810860000000E-002  8.314739674125741E-003
 
           2 0
 s           6   1.000000    
   2.20862762910000       -1.31674563780435     
   1.91795894900000        1.00917255744701     
  0.497153036800000       0.264116038887965     
  0.192182467300000       0.132588002828732     
  0.150531183200000      -6.354936454660097E-002
  7.818867730000000E-002  2.204103184587018E-002
 p           6   1.000000    
   24.5973356357000       0.512559780468475     
   6.48816086650000       0.736328400346890     
   2.22635867440000       0.654252101564877     
  0.776897003100000       0.440936922371732     
  0.283424721400000       0.120038141150298     
  9.862825729999999E-002  1.412497011493737E-002
 
           3 0
 s           8   1.000000    
   337.005012218500       3.412152420008037E-002
   53.3105310515000       6.037103200945611E-002
   12.2082534814000       0.106952692015151     
   3.41882690980000       0.164793848131339     
   1.10879012580000       0.201607023452512     
  0.478717798300000       0.122975204381765     
  0.212137087700000       8.619872360129253E-002
  6.905810860000000E-002  8.315120876109531E-003
 
           4 0
 s           8   1.000000    
   337.005012218500       3.450365351297933E-002
   53.3105310515000       6.071716077178129E-002
   12.2082534814000       0.107991675999288     
   3.41882690980000       0.166021306681138     
   1.10879012580000       0.203653512547312     
  0.478717798300000       0.123382593177514     
  0.212137087700000       8.648385037394549E-002
  6.905810860000000E-002  7.583717368311912E-003
 
           5 0
 s           6   1.000000    
   3.48359494310000       -1.31897342992365     
   2.85986576440000        1.12049253662248     
  0.740681029000000       0.296504830779093     
  0.344926919200000       8.179647575004149E-002
  0.261978532900000       3.966390920611289E-002
  9.461635039999999E-002  1.136525164086385E-002
 p           6   1.000000    
   37.6414713255000        1.49582962456486     
   9.71308856170000        1.81695521661411     
   3.13717714760000        1.32707530416876     
   1.12138051620000       0.641898404916027     
  0.398077926500000       0.184367140150683     
  0.123047771000000       1.724149702907420E-002
 
           6 0
 s           8   1.000000    
   337.005012218500       3.728931966437105E-002
   53.3105310515000       6.319802020137169E-002
   12.2082534814000       0.115545327405916     
   3.41882690980000       0.174889936887757     
   1.10879012580000       0.218544981638274     
  0.478717798300000       0.126227873019124     
  0.212137087700000       8.847504267192891E-002
  6.905810860000000E-002  2.146025466464258E-003
 
[MO]
Sym=     1a
Ene=   -1.34568940212354     
Spin= Alpha
Occup=     2.00000000
           1 -4.466388748362120E-002
           2 -0.194551726982238     
           3 -7.261498655831694E-002
           4 -1.407354626268969E-003
           5 -4.763749692276980E-004
           6 -4.466519890473357E-002
           7 -4.497056246260556E-002
           8 -0.812242424003146     
           9  2.380217328139354E-002
          10  1.137275563054005E-002
          11  3.862571955908611E-003
          12 -0.112460021793999     
Sym=     2a
Ene=  -0.729448423853946     
Spin= Alpha
Occup=     2.00000000
           1  0.191118175890452     
           2  0.585850486174613     
           3 -9.931404391465429E-002
           4 -5.684923756677278E-004
           5 -1.893432147477384E-004
           6  0.191115571343570     
           7  0.181349074686225     
           8 -0.368009664065833     
           9 -0.195212463279352     
          10  4.206737915707501E-002
          11  1.427796705933284E-002
          12 -9.613870686751702E-002
Sym=     3a
Ene=  -0.513669959762021     
Spin= Alpha
Occup=     2.00000000
           1  0.139640086839173     
           2  3.275847279880609E-002
           3 -0.261532916510737     
           4 -0.240795625637979     
           5 -8.211533369841238E-002
           6  0.140159058735112     
           7 -4.850136832915519E-002
           8 -0.150240157968487     
           9  0.317036928563934     
          10 -0.508272192649965     
          11 -0.172998329841244     
          12  0.323013228859654     
Sym=     4a
Ene=  -0.466910238091196     
Spin= Alpha
Occup=     2.00000000
           1 -5.013763646421124E-002
           2  2.193710474683038E-002
           3  0.411220685570148     
           4 -0.240419115402247     
           5 -9.642000579930463E-002
           6 -3.586220542948931E-002
           7 -0.242334861795317     
           8 -0.189564014465396     
           9 -0.615394930057647     
          10 -0.311584755813569     
          11 -0.122994570089462     
          12  5.977622762939782E-003
Sym=     5a
Ene=  -0.466018017783448     
Spin= Alpha
Occup=     2.00000000
           1  0.245666022397731     
           2  6.574805613594198E-004
           3  1.155354089545363E-002
           4 -0.165161322758504     
           5  0.463167518309418     
           6 -0.247635649399369     
           7 -7.243810975634208E-003
           8 -5.496004334030555E-003
           9 -1.733856092232628E-002
          10 -0.193019739799961     
          11  0.537708711661526     
          12  3.378225661935673E-004
Sym=     6a
Ene=  -0.384295535037153     
Spin= Alpha
Occup=     2.00000000
           1 -0.225148442397341     
           2  2.363909428866508E-002
           3  6.884003283541323E-002
           4  0.473481558240514     
           5  0.160014843016560     
           6 -0.224795880882254     
           7  0.414135315707215     
           8 -0.214886824336563     
           9 -0.138163142953232     
          10 -0.453437968670744     
          11 -0.152469736327691     
          12  0.244304567233955     
Sym=     7a
Ene=  -0.351881512882023     
Spin= Alpha
Occup=     2.00000000
           1 -0.338068501736903     
           2 -3.778564122859566E-005
           3 -1.204693334135639E-004
           4  0.112460197667631     
           5 -0.333784440271612     
           6  0.338525652088710     
           7 -3.741792299908538E-004
           8  4.653173377505108E-004
           9  2.664735105782397E-004
          10 -0.263067012386260     
          11  0.777065477409449     
          12 -6.613478761881789E-004
Sym=     8a
Ene=   0.259534342050212     
Spin= Alpha
Occup=     0.00000000
           1  0.112839448897257     
           2 -0.725236006633450     
           3 -0.757168418639431     
           4  3.319104127271767E-002
           5  1.083208356618690E-002
           6  0.112083346957376     
           7  0.132277181878661     
           8  0.823811490775926     
           9 -0.601596064374141     
          10 -0.392336990586872     
          11 -0.133034034576126     
          12 -0.551513382053176     
Sym=     9a
Ene=   0.332785849605594     
Spin= Alpha
Occup=     0.00000000
           1  0.569940943769611     
           2 -0.811511784924633     
           3 -3.829753423837273E-002
           4  0.458574147125967     
           5  0.156445706904674     
           6  0.572046572590358     
           7 -0.184630301316776     
           8 -0.290563282444558     
           9 -0.488574711647552     
          10  0.476901912675413     
          11  0.161597217770709     
          12  0.899520457066558     
Sym=    10a
Ene=   0.385181313848677     
Spin= Alpha
Occup=     0.00000000
           1  0.490667687893831     
           2 -0.986628349587432     
           3  0.722046850120306     
           4 -0.349850287371253     
           5 -0.120559215720227     
           6  0.487339341781293     
           7  0.986927097986083     
           8  1.261452174528868E-003
           9  0.234959675145139     
          10 -0.149251674630658     
          11 -5.025086221894818E-002
          12 -0.340353834121149     
Sym=    11a
Ene=   0.404052769475880     
Spin= Alpha
Occup=     0.00000000
           1 -0.877780803317394     
           2 -1.405131152884284E-003
           3  3.632883358730931E-004
           4 -0.362857727511290     
           5   1.06268267884347     
           6  0.876427572314964     
           7  3.693847846619481E-003
           8  4.007290674644143E-004
           9  5.087507468218953E-007
          10  6.645646592777156E-002
          11 -0.196272886451121     
          12 -6.439029163048772E-004
Sym=    12a
Ene=   0.423973868871430     
Spin= Alpha
Occup=     0.00000000
           1 -0.474427822322210     
           2 -0.100869192117090     
           3 -0.366506600398541     
           4 -0.881958440122759     
           5 -0.300865088023882     
           6 -0.477944768518060     
           7  0.761524476577916     
           8 -0.107403921614856     
           9 -0.367826688103382     
          10  0.497707054582574     
          11  0.169207543864689     
          12  0.586275805629149     
