[Molden Format]
[Title]
[Atoms] AU
Zn     1    30  0.10399311413762E+00 -0.10181768047469E+00  0.30774338932448E+00
H      2     1  0.11621817297870E+01  0.17725344252761E+01 -0.73076658551038E+01
C      3     6  0.66769952981970E+00  0.20111006152684E+01 -0.53014629371712E+01
H      4     1  0.18380840121107E+01  0.34903522880331E+01 -0.44321267528904E+01
H      5     1 -0.13227212659147E+01  0.25547412967743E+01 -0.51402046626602E+01
O      6     8  0.91204089251415E+00 -0.36353450673347E+00 -0.39784615571729E+01
H      7     1  0.26845701777355E+01 -0.83830147890135E+00 -0.39347593570755E+01
H      8     1 -0.28394659149120E+01  0.26124878081519E+01  0.46474369354950E+01
H      9     1 -0.36124802332270E+01 -0.48252063129023E+00  0.56752495853480E+01
H     10     1 -0.93148211382439E+01 -0.46384274967603E+00 -0.22347492704976E+01
H     11     1 -0.43331278821894E+01 -0.12317505748307E+01 -0.36719274979960E+01
H     12     1 -0.59476575930895E+01  0.19375081278513E+01  0.57680295567871E+01
C     13     6 -0.43555089086490E+01  0.11871984704690E+01  0.46752792889643E+01
C     14     6 -0.75965463397424E+01 -0.24885434961305E+00 -0.11270917291239E+01
C     15     6 -0.52368193038737E+01  0.53934223517907E+00  0.20710358828771E+01
C     16     6 -0.51230594244133E+01 -0.62677734342131E+00 -0.18763022651784E+01
N     17     7 -0.76645552537755E+01  0.48695636621034E+00  0.13655554014812E+01
N     18     7 -0.36036004107979E+01 -0.11747099894940E+00  0.18187548742284E+00
H     19     1 -0.38358858130021E+00 -0.53165024915415E+01 -0.31630545999745E+01
H     20     1 -0.23761335802260E+01 -0.56845147795983E+01 -0.51423784900561E+00
H     21     1  0.63519507304369E+01 -0.66707964678251E+01  0.39267487897047E+01
H     22     1  0.49110728540862E+01 -0.16454334204739E+01  0.36883684164690E+01
H     23     1 -0.53003212214195E+00 -0.82975374557946E+01 -0.15926081524178E+01
C     24     6 -0.53706715626466E+00 -0.62459129138803E+01 -0.13074394675697E+01
C     25     6  0.48138489274189E+01 -0.58107099820415E+01  0.28689842852594E+01
C     26     6  0.15966127841477E+01 -0.55570319745570E+01  0.41048448440439E+00
C     27     6  0.41218672123069E+01 -0.32988439790657E+01  0.27646224666838E+01
N     28     7  0.32223625541435E+01 -0.72306630358836E+01  0.13776184295467E+01
N     29     7  0.20543549125116E+01 -0.31243113621294E+01  0.11750230037071E+01
H     30     1  0.57495540270319E+01  0.57207810968960E+00 -0.52279706052316E+00
H     31     1  0.71488756950172E+01  0.24186615801820E+01  0.18683849935798E+01
H     32     1  0.10737863383854E+01  0.94745286469153E+01 -0.23712049291785E+00
H     33     1 -0.19875046272777E+01  0.53399719245825E+01  0.78043459197815E+00
H     34     1  0.76059225553946E+01  0.32854059107806E+01 -0.13331080881294E+01
C     35     6  0.62177708687663E+01  0.25242245274944E+01  0.72594390840675E-02
C     36     6  0.15883554941517E+01  0.74954788993831E+01 -0.29783876849077E-01
C     37     6  0.39379125727604E+01  0.41918575607328E+01  0.70110856252254E-01
C     38     6  0.42950221434071E-01  0.54612067852734E+01  0.50292317132961E+00
N     39     7  0.40459630419830E+01  0.66902509890268E+01 -0.30835515031936E+00
N     40     7  0.15506863009705E+01  0.33294444065153E+01  0.57928690411712E+00
[GTO]
           1 0
 s           5   1.000000    
   1.82046632240000       0.236733035362796     
   1.13274582070000      -0.430603069496281     
  0.315046004900000       8.734826279917384E-003
  0.148617277200000       0.163941951499000     
  5.129314220000000E-002  1.468210080839287E-002
 p           3   1.000000    
   1.22375302100000      -0.192932338879206     
  0.183640111800000       0.154128399168444     
  4.740596480000000E-002  6.375603573569537E-003
 
           2 0
 s           8   1.000000    
   337.005012218500       3.333420464249359E-002
   53.3105310515000       5.965365645369653E-002
   12.2082534814000       0.104809987536880     
   3.41882690980000       0.162256932991445     
   1.10879012580000       0.197387833912352     
  0.478717798300000       0.122123410006943     
  0.212137087700000       8.560254380100744E-002
  6.905810860000000E-002  9.811497946733807E-003
 
           3 0
 s           6   1.000000    
   2.20862762910000       -1.29913665187103     
   1.91795894900000       0.995613977364707     
  0.497153036800000       0.260565927557038     
  0.192182467300000       0.130807400432158     
  0.150531183200000      -6.018004497325100E-002
  7.818867730000000E-002  2.174462994035124E-002
 p           6   1.000000    
   24.5973356357000       0.507594222980554     
   6.48816086650000       0.731792488286491     
   2.22635867440000       0.650042405542385     
  0.776897003100000       0.438331648242888     
  0.283424721400000       0.119331229222242     
  9.862825729999999E-002  1.479032024980429E-002
 
           4 0
 s           8   1.000000    
   337.005012218500       3.374202931258428E-002
   53.3105310515000       6.002595598579806E-002
   12.2082534814000       0.105920229159300     
   3.41882690980000       0.163572353946382     
   1.10879012580000       0.199573788985832     
  0.478717798300000       0.122566704862647     
  0.212137087700000       8.591281357237622E-002
  6.905810860000000E-002  9.038149919405873E-003
 
           5 0
 s           8   1.000000    
   337.005012218500       3.380297504055046E-002
   53.3105310515000       6.008146305149124E-002
   12.2082534814000       0.106086082343951     
   3.41882690980000       0.163768688734823     
   1.10879012580000       0.199900377210363     
  0.478717798300000       0.122632569941565     
  0.212137087700000       8.595891312492451E-002
  6.905810860000000E-002  8.922255796949694E-003
 
           6 0
 s           6   1.000000    
   3.48359494310000       -1.31805745159853     
   2.85986576440000        1.11962688932715     
  0.740681029000000       0.296203406332745     
  0.344926919200000       8.173392933256164E-002
  0.261978532900000       3.963220809375208E-002
  9.461635039999999E-002  1.151948180099904E-002
 p           6   1.000000    
   37.6414713255000        1.49259060680826     
   9.71308856170000        1.81346391324171     
   3.13717714760000        1.32347028842535     
   1.12138051620000       0.640583827419208     
  0.398077926500000       0.184173127137769     
  0.123047771000000       1.753350483374331E-002
 
           7 0
 s           8   1.000000    
   337.005012218500       3.649577179800897E-002
   53.3105310515000       6.249910247620353E-002
   12.2082534814000       0.113397285537566     
   3.41882690980000       0.172378156801314     
   1.10879012580000       0.214307870337037     
  0.478717798300000       0.125440269261943     
  0.212137087700000       8.792389530327137E-002
  6.905810860000000E-002  3.714542754699245E-003
 
           8 0
 s           8   1.000000    
   337.005012218500       3.367329727920344E-002
   53.3105310515000       5.996331682504449E-002
   12.2082534814000       0.105733167352423     
   3.41882690980000       0.163350859723371     
   1.10879012580000       0.199205450481376     
  0.478717798300000       0.122492305598314     
  0.212137087700000       8.586074069130124E-002
  6.905810860000000E-002  9.168748938771345E-003
 
           9 0
 s           8   1.000000    
   337.005012218500       3.356692019562987E-002
   53.3105310515000       5.986628503789020E-002
   12.2082534814000       0.105443609637696     
   3.41882690980000       0.163007892820715     
   1.10879012580000       0.198635315978787     
  0.478717798300000       0.122376908391048     
  0.212137087700000       8.577997252191445E-002
  6.905810860000000E-002  9.370666402982387E-003
 
          10 0
 s           8   1.000000    
   337.005012218500       3.406024990868634E-002
   53.3105310515000       6.031540461667074E-002
   12.2082534814000       0.106786030799345     
   3.41882690980000       0.164596790019680     
   1.10879012580000       0.201278789146613     
  0.478717798300000       0.122909510072303     
  0.212137087700000       8.615274434921261E-002
  6.905810860000000E-002  8.432086865811542E-003
 
          11 0
 s           8   1.000000    
   337.005012218500       3.424742576359789E-002
   53.3105310515000       6.048522197957843E-002
   12.2082534814000       0.107295081935750     
   3.41882690980000       0.165198543756035     
   1.10879012580000       0.202281383647416     
  0.478717798300000       0.123109868093808     
  0.212137087700000       8.629297385689440E-002
  6.905810860000000E-002  8.074516568925889E-003
 
          12 0
 s           8   1.000000    
   337.005012218500       3.383085441290205E-002
   53.3105310515000       6.010684322497000E-002
   12.2082534814000       0.106161945760242     
   3.41882690980000       0.163858480099340     
   1.10879012580000       0.200049766408995     
  0.478717798300000       0.122662666423542     
  0.212137087700000       8.597997787030619E-002
  6.905810860000000E-002  8.869212258491197E-003
 
          13 0
 s           6   1.000000    
   2.20862762910000       -1.27277806722015     
   1.91795894900000       0.975318659060568     
  0.497153036800000       0.255251909424681     
  0.192182467300000       0.128142081585643     
  0.150531183200000      -5.514797453822651E-002
  7.818867730000000E-002  2.130095853088102E-002
 p           6   1.000000    
   24.5973356357000       0.499986532107867     
   6.48816086650000       0.724814421567855     
   2.22635867440000       0.643569300765516     
  0.776897003100000       0.434321759466742     
  0.283424721400000       0.118243148690414     
  9.862825729999999E-002  1.580085522657166E-002
 
          14 0
 s           6   1.000000    
   2.20862762910000       -1.33418633600077     
   1.91795894900000        1.02260171043960     
  0.497153036800000       0.267632265558574     
  0.192182467300000       0.134351606175296     
  0.150531183200000      -6.689255054691748E-002
  7.818867730000000E-002  2.233460502140348E-002
 p           6   1.000000    
   24.5973356357000       0.517387985918837     
   6.48816086650000       0.740724404861907     
   2.22635867440000       0.658333520322647     
  0.776897003100000       0.443460868131289     
  0.283424721400000       0.120722964271804     
  9.862825729999999E-002  1.347356463608592E-002
 
          15 0
 s           6   1.000000    
   2.20862762910000       -1.40724995678660     
   1.91795894900000        1.07886158624573     
  0.497153036800000       0.282363131253961     
  0.192182467300000       0.141739997352197     
  0.150531183200000      -8.096466901802990E-002
  7.818867730000000E-002  2.356450291242083E-002
 p           6   1.000000    
   24.5973356357000       0.536685057365860     
   6.48816086650000       0.758146864629916     
   2.22635867440000       0.674525240510729     
  0.776897003100000       0.453453969157433     
  0.283424721400000       0.123434178410367     
  9.862825729999999E-002  1.082460156445777E-002
 
          16 0
 s           6   1.000000    
   2.20862762910000       -1.33092581127402     
   1.91795894900000        1.02009112942566     
  0.497153036800000       0.266974906461546     
  0.192182467300000       0.134021900555381     
  0.150531183200000      -6.626708368076566E-002
  7.818867730000000E-002  2.227972144767315E-002
 p           6   1.000000    
   24.5973356357000       0.516492066252591     
   6.48816086650000       0.739909771269652     
   2.22635867440000       0.657577064877483     
  0.776897003100000       0.442993223283160     
  0.283424721400000       0.120596079631728     
  9.862825729999999E-002  1.359477487137964E-002
 
          17 0
 s           6   1.000000    
   2.69507309610000       -1.13450984244632     
   2.24947021280000       0.936522495768258     
  0.611851695800000       0.235721513766368     
  0.303726665600000       9.006065715061892E-002
  0.171628270400000       3.133257956496120E-002
  7.154913430000000E-002  9.693192873609849E-003
 p           6   1.000000    
   27.5476401720000       0.938588180909914     
   7.12656627820000        1.20093628778716     
   2.35805520400000       0.907852602306865     
  0.845047262300000       0.476882784314723     
  0.301063057900000       0.124011085661816     
  9.457452580000000E-002  1.217509555422645E-002
 
          18 0
 s           6   1.000000    
   2.69507309610000       -1.13806180234597     
   2.24947021280000       0.939497620525814     
  0.611851695800000       0.236472881210868     
  0.303726665600000       9.034698701967114E-002
  0.171628270400000       3.143455448335949E-002
  7.154913430000000E-002  9.268237758880212E-003
 p           6   1.000000    
   27.5476401720000       0.945102540799187     
   7.12656627820000        1.20617865591324     
   2.35805520400000       0.913827324821499     
  0.845047262300000       0.479192474964742     
  0.301063057900000       0.124473511922552     
  9.457452580000000E-002  1.160362059025215E-002
 
          19 0
 s           8   1.000000    
   337.005012218500       3.369157833678288E-002
   53.3105310515000       5.997998152454114E-002
   12.2082534814000       0.105782923286621     
   3.41882690980000       0.163409779691103     
   1.10879012580000       0.199303422298740     
  0.478717798300000       0.122512106342287     
  0.212137087700000       8.587459947270841E-002
  6.905810860000000E-002  9.134023251454669E-003
 
          20 0
 s           8   1.000000    
   337.005012218500       3.374696826575914E-002
   53.3105310515000       6.003045545937813E-002
   12.2082534814000       0.105933670267364     
   3.41882690980000       0.163588266995463     
   1.10879012580000       0.199600256028683     
  0.478717798300000       0.122572046181105     
  0.212137087700000       8.591655201399157E-002
  6.905810860000000E-002  9.028761180924740E-003
 
          21 0
 s           8   1.000000    
   337.005012218500       3.406436195970900E-002
   53.3105310515000       6.031913879349262E-002
   12.2082534814000       0.106797215773358     
   3.41882690980000       0.164610016403776     
   1.10879012580000       0.201300817287324     
  0.478717798300000       0.122913921929042     
  0.212137087700000       8.615583219938458E-002
  6.905810860000000E-002  8.424240111747458E-003
 
          22 0
 s           8   1.000000    
   337.005012218500       3.420263844483152E-002
   53.3105310515000       6.044461765616878E-002
   12.2082534814000       0.107173290685341     
   3.41882690980000       0.165054611701840     
   1.10879012580000       0.202041502348075     
  0.478717798300000       0.123062013159862     
  0.212137087700000       8.625948057383367E-002
  6.905810860000000E-002  8.160149391116490E-003
 
          23 0
 s           8   1.000000    
   337.005012218500       3.385240340993597E-002
   53.3105310515000       6.012645563065181E-002
   12.2082534814000       0.106220581055201     
   3.41882690980000       0.163927874043982     
   1.10879012580000       0.200165231722828     
  0.478717798300000       0.122685914798372     
  0.212137087700000       8.599624955479623E-002
  6.905810860000000E-002  8.828200783084064E-003
 
          24 0
 s           6   1.000000    
   2.20862762910000       -1.27465115608552     
   1.91795894900000       0.976760870027280     
  0.497153036800000       0.255629529981180     
  0.192182467300000       0.128331482646434     
  0.150531183200000      -5.550511379296407E-002
  7.818867730000000E-002  2.133248633350529E-002
 p           6   1.000000    
   24.5973356357000       0.500534188319010     
   6.48816086650000       0.725317894649588     
   2.22635867440000       0.644036216943323     
  0.776897003100000       0.434611152540161     
  0.283424721400000       0.118321676973413     
  9.862825729999999E-002  1.572846227296711E-002
 
          25 0
 s           6   1.000000    
   2.20862762910000       -1.33395478366995     
   1.91795894900000        1.02242341660538     
  0.497153036800000       0.267585581908656     
  0.192182467300000       0.134328191486222     
  0.150531183200000      -6.684812482591684E-002
  7.818867730000000E-002  2.233070735602636E-002
 p           6   1.000000    
   24.5973356357000       0.517324461538638     
   6.48816086650000       0.740666660405685     
   2.22635867440000       0.658279897973649     
  0.776897003100000       0.443427720719399     
  0.283424721400000       0.120713970510651     
  9.862825729999999E-002  1.348216400640447E-002
 
          26 0
 s           6   1.000000    
   2.20862762910000       -1.40589624624063     
   1.91795894900000        1.07781918797032     
  0.497153036800000       0.282090193134254     
  0.192182467300000       0.141603103530389     
  0.150531183200000      -8.070295203381615E-002
  7.818867730000000E-002  2.354171492297964E-002
 p           6   1.000000    
   24.5973356357000       0.536340663933966     
   6.48816086650000       0.757838052647374     
   2.22635867440000       0.674238009751440     
  0.776897003100000       0.453276986567144     
  0.283424721400000       0.123386164684717     
  9.862825729999999E-002  1.087253381273744E-002
 
          27 0
 s           6   1.000000    
   2.20862762910000       -1.32943321747085     
   1.91795894900000        1.01894184450385     
  0.497153036800000       0.266673982977981     
  0.192182467300000       0.133870969058203     
  0.150531183200000      -6.598083007145490E-002
  7.818867730000000E-002  2.225459704650654E-002
 p           6   1.000000    
   24.5973356357000       0.516080910599355     
   6.48816086650000       0.739535752926891     
   2.22635867440000       0.657229775723501     
  0.776897003100000       0.442778504777789     
  0.283424721400000       0.120537820472777     
  9.862825729999999E-002  1.365034927452068E-002
 
          28 0
 s           6   1.000000    
   2.69507309610000       -1.13448311260357     
   2.24947021280000       0.936500107403147     
  0.611851695800000       0.235715859620455     
  0.303726665600000       9.005850246828524E-002
  0.171628270400000       3.133181221690558E-002
  7.154913430000000E-002  9.696384739207153E-003
 p           6   1.000000    
   27.5476401720000       0.938539086206481     
   7.12656627820000        1.20089669169789     
   2.35805520400000       0.907807565274237     
  0.845047262300000       0.476865349275674     
  0.301063057900000       0.124007589359980     
  9.457452580000000E-002  1.217938382790889E-002
 
          29 0
 s           6   1.000000    
   2.69507309610000       -1.13745196223131     
   2.24947021280000       0.938986807091573     
  0.611851695800000       0.236343874704579     
  0.303726665600000       9.029782561536309E-002
  0.171628270400000       3.141704531678048E-002
  7.154913430000000E-002  9.341313220269338E-003
 p           6   1.000000    
   27.5476401720000       0.943985449943254     
   7.12656627820000        1.20528133727081     
   2.35805520400000       0.912802945704440     
  0.845047262300000       0.478796939613536     
  0.301063057900000       0.124394426875602     
  9.457452580000000E-002  1.170196769032668E-002
 
          30 0
 s           8   1.000000    
   337.005012218500       3.376238664641127E-002
   53.3105310515000       6.004450044545408E-002
   12.2082534814000       0.105975629911855     
   3.41882690980000       0.163637941531825     
   1.10879012580000       0.199682879694174     
  0.478717798300000       0.122588716456197     
  0.212137087700000       8.592821969818593E-002
  6.905810860000000E-002  8.999447923727380E-003
 
          31 0
 s           8   1.000000    
   337.005012218500       3.359851048510774E-002
   53.3105310515000       5.989511082465887E-002
   12.2082534814000       0.105529603356747     
   3.41882690980000       0.163109762136922     
   1.10879012580000       0.198804632940909     
  0.478717798300000       0.122411208864784     
  0.212137087700000       8.580397996451943E-002
  6.905810860000000E-002  9.310730746634252E-003
 
          32 0
 s           8   1.000000    
   337.005012218500       3.407193698622927E-002
   53.3105310515000       6.032601731028726E-002
   12.2082534814000       0.106817820008954     
   3.41882690980000       0.164634380661309     
   1.10879012580000       0.201341396228471     
  0.478717798300000       0.122922048045277     
  0.212137087700000       8.616151965095528E-002
  6.905810860000000E-002  8.409784172640636E-003
 
          33 0
 s           8   1.000000    
   337.005012218500       3.424299743042374E-002
   53.3105310515000       6.048120806628906E-002
   12.2082534814000       0.107283040259304     
   3.41882690980000       0.165184314065742     
   1.10879012580000       0.202257665983313     
  0.478717798300000       0.123105138882977     
  0.212137087700000       8.628966392393811E-002
  6.905810860000000E-002  8.082985556992493E-003
 
          34 0
 s           8   1.000000    
   337.005012218500       3.377434853087544E-002
   53.3105310515000       6.005539532951742E-002
   12.2082534814000       0.106008182314601     
   3.41882690980000       0.163676477221004     
   1.10879012580000       0.199746979810340     
  0.478717798300000       0.122601645194841     
  0.212137087700000       8.593726863892388E-002
  6.905810860000000E-002  8.976702386858732E-003
 
          35 0
 s           6   1.000000    
   2.20862762910000       -1.27340001798200     
   1.91795894900000       0.975797538558365     
  0.497153036800000       0.255377296583437     
  0.192182467300000       0.128204971336357     
  0.150531183200000      -5.526655343838582E-002
  7.818867730000000E-002  2.131142719146891E-002
 p           6   1.000000    
   24.5973356357000       0.500168499606644     
   6.48816086650000       0.724981728005769     
   2.22635867440000       0.643724457071759     
  0.776897003100000       0.434417927426991     
  0.283424721400000       0.118269244384257     
  9.862825729999999E-002  1.577680753318779E-002
 
          36 0
 s           6   1.000000    
   2.20862762910000       -1.33403819081185     
   1.91795894900000        1.02248763957547     
  0.497153036800000       0.267602397760150     
  0.192182467300000       0.134336625658326     
  0.150531183200000      -6.686412722934669E-002
  7.818867730000000E-002  2.233211132855113E-002
 p           6   1.000000    
   24.5973356357000       0.517347345344894     
   6.48816086650000       0.740687462360698     
   2.22635867440000       0.658299214942652     
  0.776897003100000       0.443439661815434     
  0.283424721400000       0.120717210443234     
  9.862825729999999E-002  1.347906628775926E-002
 
          37 0
 s           6   1.000000    
   2.20862762910000       -1.40499035406458     
   1.91795894900000        1.07712162398063     
  0.497153036800000       0.281907545297905     
  0.192182467300000       0.141511495352026     
  0.150531183200000      -8.052783425998972E-002
  7.818867730000000E-002  2.352646539807960E-002
 p           6   1.000000    
   24.5973356357000       0.536109929859378     
   6.48816086650000       0.757631112919932     
   2.22635867440000       0.674045536833330     
  0.776897003100000       0.453158384744053     
  0.283424721400000       0.123353989050049     
  9.862825729999999E-002  1.090463343058628E-002
 
          38 0
 s           6   1.000000    
   2.20862762910000       -1.33012595188492     
   1.91795894900000        1.01947524415315     
  0.497153036800000       0.266813645887919     
  0.192182467300000       0.133941018536840     
  0.150531183200000      -6.611367898971919E-002
  7.818867730000000E-002  2.226625764156974E-002
 p           6   1.000000    
   24.5973356357000       0.516271814014565     
   6.48816086650000       0.739709426152202     
   2.22635867440000       0.657391035987654     
  0.776897003100000       0.442878208935116     
  0.283424721400000       0.120564873029207     
  9.862825729999999E-002  1.362454957753845E-002
 
          39 0
 s           6   1.000000    
   2.69507309610000       -1.13455296069281     
   2.24947021280000       0.936558610740438     
  0.611851695800000       0.235730634546056     
  0.303726665600000       9.006413289769774E-002
  0.171628270400000       3.133381738541360E-002
  7.154913430000000E-002  9.688043844119115E-003
 p           6   1.000000    
   27.5476401720000       0.938667373983363     
   7.12656627820000        1.20100015621264     
   2.35805520400000       0.907925249793917     
  0.845047262300000       0.476910907324037     
  0.301063057900000       0.124016725079835     
  9.457452580000000E-002  1.216817769758302E-002
 
          40 0
 s           6   1.000000    
   2.69507309610000       -1.13748226687500     
   2.24947021280000       0.939012190719176     
  0.611851695800000       0.236350285362070     
  0.303726665600000       9.030026857088005E-002
  0.171628270400000       3.141791538617534E-002
  7.154913430000000E-002  9.337683021639643E-003
 p           6   1.000000    
   27.5476401720000       0.944040974885647     
   7.12656627820000        1.20532595467395     
   2.35805520400000       0.912853864126775     
  0.845047262300000       0.478816604924914     
  0.301063057900000       0.124398359883374     
  9.457452580000000E-002  1.169708279456638E-002
 
[MO]
Sym=     1a
Ene=   -1.28284982120917     
Spin= Alpha
Occup=     2.00000000
           1 -1.588668960471437E-002
           2  1.453520397199099E-003
           3  1.088947486210973E-003
           4  3.054685879225788E-003
           5 -4.239117647315211E-002
           6 -0.179894854968841     
           7 -4.947557726654319E-003
           8  5.897677971402279E-002
           9 -3.332874541692171E-002
          10 -4.365129013215728E-002
          11 -4.228806862735823E-002
          12 -0.799098700312728     
          13 -9.492496901293399E-003
          14 -2.095746445511232E-002
          15  1.045779119601528E-002
          16 -0.107863925434951     
          17 -2.296884400473066E-003
          18 -1.700104912455836E-003
          19 -3.760352464941971E-003
          20 -1.348328915461709E-002
          21 -1.689786512160344E-003
          22 -6.509272884890904E-003
          23  1.919347068246598E-003
          24  5.520398653818080E-004
          25  1.760200913770265E-003
          26 -1.457747593563514E-002
          27 -2.587670173747917E-003
          28 -6.496354451580079E-004
          29 -2.735806036475420E-003
          30 -1.917716384819329E-002
          31  1.376473838530818E-003
          32  7.544649254653278E-004
          33  2.906938934880034E-003
          34 -1.491693978726296E-002
          35  1.955202636865920E-003
          36 -1.485314600379126E-003
          37 -7.102269171876003E-003
          38 -2.123857138452295E-002
          39 -1.857289487465778E-003
          40  4.751679139341737E-004
          41  1.003276270449582E-003
          42 -2.957160907956915E-002
          43  5.745107194690719E-003
          44  6.154561536720714E-005
          45  6.663618413442438E-006
          46 -1.293408951598071E-002
          47 -4.718398663110547E-003
          48 -3.983256076950173E-003
          49 -5.446973312084229E-003
          50 -3.215853392846565E-003
          51 -6.824745052066215E-003
          52 -2.919072088473140E-003
          53  1.636478209278291E-003
          54 -4.849356768112478E-003
          55 -1.619707673993228E-002
          56  3.586089575491334E-003
          57 -8.914264803420794E-004
          58  2.644406063813678E-003
          59 -2.480475469533519E-002
          60 -2.363822041439986E-003
          61 -1.685242714087744E-003
          62 -1.724878988641766E-003
          63 -1.735754949997119E-002
          64  2.364124719521450E-003
          65  3.826387750111315E-003
          66  2.154208379328273E-003
          67 -2.587512168536234E-002
          68  2.881555616788517E-004
          69 -2.447429403978033E-003
          70 -3.261451968622429E-004
          71 -3.523863964632941E-002
          72 -2.156448640204290E-003
          73  4.663131597565240E-003
          74 -1.601275819348956E-003
          75 -1.041890494405069E-002
          76 -3.594945090734711E-003
          77 -6.725713082566824E-003
          78 -8.959042807399075E-003
          79 -5.420055046076218E-003
          80 -1.302735892034193E-002
          81  2.466605341284076E-003
          82 -5.813280598479076E-003
          83 -3.139903744019471E-003
          84 -2.668416358229459E-002
          85 -3.409487772125862E-003
          86  6.274200609408367E-003
          87 -8.548545188924124E-004
          88 -4.029248916978143E-002
          89  5.624554918079854E-003
          90 -2.350195093661347E-003
          91 -6.661887185543477E-004
          92 -2.862987156660238E-002
          93 -8.301592632172778E-003
          94  9.864167757377246E-004
          95 -4.308437712297411E-005
          96 -4.249094970643453E-002
          97  2.754897673152233E-003
          98  1.973490717014895E-003
          99 -1.832864871038365E-003
         100 -5.522406894465358E-002
         101 -2.230129471893945E-003
         102 -5.681499308107700E-003
         103  3.430362277052441E-006
Sym=     2a
Ene=   -1.20315887304663     
Spin= Alpha
Occup=     2.00000000
           1  3.574304659745113E-002
           2  2.288952398281184E-003
           3  1.254527435496696E-002
           4  4.356059343945957E-003
           5 -7.923497116818395E-003
           6 -4.396590449767780E-002
           7 -2.107122495041978E-003
           8  1.155802651279374E-002
           9 -9.323471616092626E-003
          10  4.901049979240674E-003
          11 -5.833254214694349E-003
          12 -0.173791471245695     
          13 -3.325664970578080E-003
          14 -3.697400620168133E-003
          15  7.247791610329433E-004
          16 -2.154570239506212E-002
          17  1.289059191984653E-002