[Molden Format]
[Title]
[Atoms] AU
Zn     1    30  0.67727696531765E+00  0.94744600554044E-01 -0.67067227224386E+00
H      2     1  0.47794725479675E+01 -0.55106109140009E+00  0.45159432586746E+01
C      3     6  0.48868951360826E+01 -0.18177192463266E+01  0.28967411260556E+01
H      4     1  0.67778221140381E+01 -0.26070363554407E+01  0.27413681453538E+01
H      5     1  0.35075545398283E+01 -0.33318552904751E+01  0.30923798954709E+01
O      6     8  0.42697898743983E+01 -0.48638011085352E+00  0.59045316478488E+00
H      7     1  0.54543710417121E+01  0.86587324191162E+00  0.33015515398509E+00
H      8     1  0.27738569741849E+01  0.19795581190355E+01 -0.75874208353760E+01
C      9     6  0.33030668601124E+01  0.15545880762200E+01 -0.56479755163268E+01
H     10     1  0.50560968317308E+01  0.47354354135416E+00 -0.56144965783760E+01
H     11     1  0.35279627856358E+01  0.33073509461589E+01 -0.45908048079470E+01
O     12     8  0.12907428233228E+01  0.16085240804127E+00 -0.44416207951738E+01
H     13     1  0.83358376209772E+00 -0.12861059606975E+01 -0.54367393216770E+01
N     14     7 -0.19654838180664E+01  0.67749999428442E+01  0.22691214685624E+01
N     15     7 -0.56004663530648E+00  0.34950436716412E+01  0.22742532110852E+00
C     16     6 -0.99184664374792E+00  0.44568679011947E+01  0.24969297323501E+01
C     17     6 -0.46537358545428E+00  0.32131563245113E+01  0.49365723805093E+01
C     18     6 -0.21761283211612E+01  0.73200577963188E+01 -0.24832119910367E+00
C     19     6 -0.13015709108110E+01  0.52724368120273E+01 -0.14982158033872E+01
H     20     1 -0.24586420447305E+01  0.79286294228456E+01  0.37005903458258E+01
H     21     1 -0.10665641559725E+00  0.12078836851504E+01  0.46355859060962E+01
H     22     1 -0.20643318897327E+01  0.34250070462323E+01  0.62123096649223E+01
H     23     1  0.11772946426556E+01  0.40616932301294E+01  0.58450262417789E+01
H     24     1 -0.29218640942857E+01  0.90792145604805E+01 -0.93120811326637E+00
H     25     1 -0.11817780373990E+01  0.49518963146229E+01 -0.34976722729177E+01
N     26     7 -0.30531254509206E+01 -0.65951515318143E+01  0.56362935458401E+00
N     27     7 -0.14383197609634E+01 -0.28271968914480E+01  0.25222102648010E+00
C     28     6 -0.10570495604752E+01 -0.52582039024510E+01 -0.21149123591669E+00
C     29     6  0.11936331039697E+01 -0.63747056277126E+01 -0.14230480099524E+01
C     30     6 -0.47898424571739E+01 -0.49582238722082E+01  0.15557002727202E+01
C     31     6 -0.37704398835426E+01 -0.26261307926024E+01  0.13534833390812E+01
H     32     1 -0.32560104632378E+01 -0.84834695825709E+01  0.43204089359290E+00
H     33     1  0.26499549970675E+01 -0.49388303803247E+01 -0.16557872081975E+01
H     34     1  0.71007428360263E+00 -0.71527898170106E+01 -0.32674765155282E+01
H     35     1  0.19428526790013E+01 -0.79114914267209E+01 -0.27826336507763E+00
H     36     1 -0.65713358211545E+01 -0.55738937081095E+01  0.23070354095730E+01
H     37     1 -0.45535928336256E+01 -0.83700533398274E+00  0.19047252816495E+01
[GTO]
           1 0
 s           5   1.000000    
   1.82046632240000       0.240795664883404     
   1.13274582070000      -0.437903963467201     
  0.315046004900000       8.944794296331429E-003
  0.148617277200000       0.166725496740752     
  5.129314220000000E-002  1.344766630261462E-002
 p           3   1.000000    
   1.22375302100000      -0.200665035267450     
  0.183640111800000       0.159839248847087     
  4.740596480000000E-002  4.964442766615532E-003
 
           2 0
 s           8   1.000000    
   337.005012218500       3.559390013908135E-002
   53.3105310515000       6.169713727539061E-002
   12.2082534814000       0.110952346676713     
   3.41882690980000       0.169509191404259     
   1.10879012580000       0.209487475619119     
  0.478717798300000       0.124522694706835     
  0.212137087700000       8.728176114488251E-002
  6.905810860000000E-002  5.478077772485826E-003
 
           3 0
 s           6   1.000000    
   2.20862762910000       -1.33780577261023     
   1.91795894900000        1.02538865727461     
  0.497153036800000       0.268361987182842     
  0.192182467300000       0.134717605854414     
  0.150531183200000      -6.758711648949235E-002
  7.818867730000000E-002  2.239553022902761E-002
 p           6   1.000000    
   24.5973356357000       0.518378944664349     
   6.48816086650000       0.741624873782097     
   2.22635867440000       0.659169744438575     
  0.776897003100000       0.443977748003375     
  0.283424721400000       0.120863206839741     
  9.862825729999999E-002  1.333931701718011E-002
 
           4 0
 s           8   1.000000    
   337.005012218500       3.587544028310503E-002
   53.3105310515000       6.194834738133353E-002
   12.2082534814000       0.111716003936493     
   3.41882690980000       0.170406412752915     
   1.10879012580000       0.210992823105033     
  0.478717798300000       0.124811658859272     
  0.212137087700000       8.748398709568631E-002
  6.905810860000000E-002  4.929693590246036E-003
 
           5 0
 s           8   1.000000    
   337.005012218500       3.544576759455636E-002
   53.3105310515000       6.156465400712573E-002
   12.2082534814000       0.110550399228573     
   3.41882690980000       0.169036539160532     
   1.10879012580000       0.208695238157808     
  0.478717798300000       0.124369748140741     
  0.212137087700000       8.717472304735288E-002
  6.905810860000000E-002  5.765838634451296E-003
 
           6 0
 s           6   1.000000    
   3.48359494310000       -1.32396545608661     
   2.85986576440000        1.12521255449185     
  0.740681029000000       0.298150078206555     
  0.344926919200000       8.213750036163177E-002
  0.261978532900000       3.983678723145662E-002
  9.461635039999999E-002  1.052045887189185E-002
 p           6   1.000000    
   37.6414713255000        1.51340544494069     
   9.71308856170000        1.83587260729435     
   3.13717714760000        1.34668236790890     
   1.12138051620000       0.649027010548312     
  0.398077926500000       0.185407217757470     
  0.123047771000000       1.563661192986309E-002
 
           7 0
 s           8   1.000000    
   337.005012218500       3.796405445441504E-002
   53.3105310515000       6.378719589071206E-002
   12.2082534814000       0.117369303162357     
   3.41882690980000       0.177016095454994     
   1.10879012580000       0.222144431658015     
  0.478717798300000       0.126882572008359     
  0.212137087700000       8.893316216056898E-002
  6.905810860000000E-002  7.996155127616750E-004
 
           8 0
 s           8   1.000000    
   337.005012218500       3.587830649246061E-002
   53.3105310515000       6.195090084080788E-002
   12.2082534814000       0.111723776408567     
   3.41882690980000       0.170415539435121     
   1.10879012580000       0.211008145694869     
  0.478717798300000       0.124814588962546     
  0.212137087700000       8.748603765337297E-002
  6.905810860000000E-002  4.924100849514185E-003
 
           9 0
 s           6   1.000000    
   2.20862762910000       -1.33835486349990     
   1.91795894900000        1.02581145489453     
  0.497153036800000       0.268472690624678     
  0.192182467300000       0.134773130334478     
  0.150531183200000      -6.769250934143824E-002
  7.818867730000000E-002  2.240477297429312E-002
 p           6   1.000000    
   24.5973356357000       0.518528951008790     
   6.48816086650000       0.741761128928420     
   2.22635867440000       0.659296284152943     
  0.776897003100000       0.444055956477861     
  0.283424721400000       0.120884426695794     
  9.862825729999999E-002  1.331897882649498E-002
 
          10 0
 s           8   1.000000    
   337.005012218500       3.566339303587763E-002
   53.3105310515000       6.175921546672095E-002
   12.2082534814000       0.111140875629203     
   3.41882690980000       0.169730787936931     
   1.10879012580000       0.209859088288525     
  0.478717798300000       0.124594230799357     
  0.212137087700000       8.733182461812182E-002
  6.905810860000000E-002  5.342898586357068E-003
 
          11 0
 s           8   1.000000    
   337.005012218500       3.550092003588040E-002
   53.3105310515000       6.161400471793370E-002
   12.2082534814000       0.110700063500577     
   3.41882690980000       0.169212562605688     
   1.10879012580000       0.208990218447554     
  0.478717798300000       0.124426765760209     
  0.212137087700000       8.721462636068862E-002
  6.905810860000000E-002  5.658761949484905E-003
 
          12 0
 s           6   1.000000    
   3.48359494310000       -1.32421441053672     
   2.85986576440000        1.12544804622841     
  0.740681029000000       0.298232239218222     
  0.344926919200000       8.215451412545376E-002
  0.261978532900000       3.984541359742313E-002
  9.461635039999999E-002  1.047813888297581E-002
 p           6   1.000000    
   37.6414713255000        1.51427838592139     
   9.71308856170000        1.83681094481334     
   3.13717714760000        1.34765823441899     
   1.12138051620000       0.649380857951763     
  0.398077926500000       0.185458303252379     
  0.123047771000000       1.555598352579566E-002
 
          13 0
 s           8   1.000000    
   337.005012218500       3.800168769458205E-002
   53.3105310515000       6.381991649160131E-002
   12.2082534814000       0.117470967504457     
   3.41882690980000       0.177134418308797     
   1.10879012580000       0.222345100449122     
  0.478717798300000       0.126918674538930     
  0.212137087700000       8.895842388795235E-002
  6.905810860000000E-002  7.241683732007798E-004
 
          14 0
 s           6   1.000000    
   2.69507309610000       -1.15549481687703     
   2.24947021280000       0.954101774647118     
  0.611851695800000       0.240161289048063     
  0.303726665600000       9.175252145196937E-002
  0.171628270400000       3.193524963301147E-002
  7.154913430000000E-002  7.158796618114909E-003
 p           6   1.000000    
   27.5476401720000       0.976767720182587     
   7.12656627820000        1.23131684413918     
   2.35805520400000       0.942833119714622     
  0.845047262300000       0.490308221478717     
  0.301063057900000       0.126676979644735     
  9.457452580000000E-002  8.752806193537931E-003
 
          15 0
 s           6   1.000000    
   2.69507309610000       -1.14455505800576     
   2.24947021280000       0.944936773162967     
  0.611851695800000       0.237846561601834     
  0.303726665600000       9.087046019007637E-002
  0.171628270400000       3.162100815354260E-002
  7.154913430000000E-002  8.487197624789951E-003
 p           6   1.000000    
   27.5476401720000       0.956959603158700     
   7.12656627820000        1.21566000337206     
   2.35805520400000       0.924695786282792     
  0.845047262300000       0.483376873492672     
  0.301063057900000       0.125307401456085     
  9.457452580000000E-002  1.055062117161944E-002
 
          16 0
 s           6   1.000000    
   2.20862762910000       -1.43818720678154     
   1.91795894900000        1.10268446753587     
  0.497153036800000       0.288600842402267     
  0.192182467300000       0.144868553958730     
  0.150531183200000      -8.695622204043821E-002
  7.818867730000000E-002  2.408529879734648E-002
 p           6   1.000000    
   24.5973356357000       0.544426389034725     
   6.48816086650000       0.765067295086687     
   2.22635867440000       0.680964373101121     
  0.776897003100000       0.457418678645609     
  0.283424721400000       0.124509735388976     
  9.862825729999999E-002  9.740657603067806E-003
 
          17 0
 s           6   1.000000    
   2.20862762910000       -1.31433005308376     
   1.91795894900000        1.00731259467323     
  0.497153036800000       0.263629035231729     
  0.192182467300000       0.132343740327211     
  0.150531183200000      -6.308680110585220E-002
  7.818867730000000E-002  2.200037146415546E-002
 p           6   1.000000    
   24.5973356357000       0.511884051724086     
   6.48816086650000       0.735712018644346     
   2.22635867440000       0.653679953588574     
  0.776897003100000       0.440582952711933     
  0.283424721400000       0.119942096746609     
  9.862825729999999E-002  1.421578469446659E-002
 
          18 0
 s           6   1.000000    
   2.20862762910000       -1.36783516605241     
   1.91795894900000        1.04851138280226     
  0.497153036800000       0.274416344140704     
  0.192182467300000       0.137754226964555     
  0.150531183200000      -7.335988011955999E-002
  7.818867730000000E-002  2.290101525991719E-002
 p           6   1.000000    
   24.5973356357000       0.526457520777444     
   6.48816086650000       0.748942712800364     
   2.22635867440000       0.665968000758312     
  0.776897003100000       0.448176718539031     
  0.283424721400000       0.122002459502351     
  9.862825729999999E-002  1.223777734590115E-002
 
          19 0
 s           6   1.000000    
   2.20862762910000       -1.36890721990018     
   1.91795894900000        1.04933687596529     
  0.497153036800000       0.274632488005671     
  0.192182467300000       0.137862635794423     
  0.150531183200000      -7.356630543667982E-002
  7.818867730000000E-002  2.291906137116033E-002
 p           6   1.000000    
   24.5973356357000       0.526741273378445     
   6.48816086650000       0.749198990582250     
   2.22635867440000       0.666206164905090     
  0.776897003100000       0.448323719406935     
  0.283424721400000       0.122042342235117     
  9.862825729999999E-002  1.219885371697400E-002
 
          20 0
 s           8   1.000000    
   337.005012218500       3.798943078341509E-002
   53.3105310515000       6.380926124231964E-002
   12.2082534814000       0.117437856855560     
   3.41882690980000       0.177095884377789     
   1.10879012580000       0.222279744931882     
  0.478717798300000       0.126906921007995     
  0.212137087700000       8.895019969428247E-002
  6.905810860000000E-002  7.487451480380300E-004
 
          21 0
 s           8   1.000000    
   337.005012218500       3.522532783135791E-002
   53.3105310515000       6.136711095729355E-002
   12.2082534814000       0.109952062795073     
   3.41882690980000       0.168332440390562     
   1.10879012580000       0.207516039034257     
  0.478717798300000       0.124140994238405     
  0.212137087700000       8.701463017719092E-002
  6.905810860000000E-002  6.193084862776988E-003
 
          22 0
 s           8   1.000000    
   337.005012218500       3.556705616939158E-002
   53.3105310515000       6.167314494796904E-002
   12.2082534814000       0.110879514992092     
   3.41882690980000       0.169423568803346     
   1.10879012580000       0.209343919692349     
  0.478717798300000       0.124495024635845     
  0.212137087700000       8.726239659894544E-002
  6.905810860000000E-002  5.530263953876959E-003
 
          23 0
 s           8   1.000000    
   337.005012218500       3.551439844663812E-002
   53.3105310515000       6.162606080889789E-002
   12.2082534814000       0.110736637004148     
   3.41882690980000       0.169255571670804     
   1.10879012580000       0.209062304246058     
  0.478717798300000       0.124440686866316     
  0.212137087700000       8.722436891233409E-002
  6.905810860000000E-002  5.632582890803853E-003
 
          24 0
 s           8   1.000000    
   337.005012218500       3.613429412281109E-002
   53.3105310515000       6.217863081991137E-002
   12.2082534814000       0.112417796925761     
   3.41882690980000       0.171230054791327     
   1.10879012580000       0.212376432495642     
  0.478717798300000       0.125075327149353     
  0.212137087700000       8.766850709745280E-002
  6.905810860000000E-002  4.423787807570212E-003
 
          25 0
 s           8   1.000000    
   337.005012218500       3.596393167830056E-002
   53.3105310515000       6.202714581395773E-002
   12.2082534814000       0.111955953506769     
   3.41882690980000       0.170688120564630     
   1.10879012580000       0.211465869226764     
  0.478717798300000       0.124902013823898     
  0.212137087700000       8.754721953166078E-002
  6.905810860000000E-002  4.756930471382865E-003
 
          26 0
 s           6   1.000000    
   2.69507309610000       -1.15549601679747     
   2.24947021280000       0.954102779987320     
  0.611851695800000       0.240161542963200     
  0.303726665600000       9.175261820870184E-002
  0.171628270400000       3.193528410785657E-002
  7.154913430000000E-002  7.158650036263568E-003
 p           6   1.000000    
   27.5476401720000       0.976769880214184     
   7.12656627820000        1.23131853853617     
   2.35805520400000       0.942835096184948     
  0.845047262300000       0.490308973140169     
  0.301063057900000       0.126677127326953     
  9.457452580000000E-002  8.752607399758670E-003
 
          27 0
 s           6   1.000000    
   2.69507309610000       -1.14450997459413     
   2.24947021280000       0.944899006725821     
  0.611851695800000       0.237837023429273     
  0.303726665600000       9.086682547556657E-002
  0.171628270400000       3.161971342388815E-002
  7.154913430000000E-002  8.492639336292747E-003
 p           6   1.000000    
   27.5476401720000       0.956877521131544     
   7.12656627820000        1.21559464187536     
   2.35805520400000       0.924620576916169     
  0.845047262300000       0.483347995175903     
  0.301063057900000       0.125301664077942     
  9.457452580000000E-002  1.055796888085789E-002
 
          28 0
 s           6   1.000000    
   2.20862762910000       -1.43787467587601     
   1.91795894900000        1.10244380414179     
  0.497153036800000       0.288537827763515     
  0.192182467300000       0.144836948699648     
  0.150531183200000      -8.689559507780291E-002
  7.818867730000000E-002  2.408003760496136E-002
 p           6   1.000000    
   24.5973356357000       0.544349407492069     
   6.48816086650000       0.764998677723077     
   2.22635867440000       0.680900505593717     
  0.776897003100000       0.457379381605559     
  0.283424721400000       0.124499075086173     
  9.862825729999999E-002  9.751498646958994E-003
 
          29 0
 s           6   1.000000    
   2.20862762910000       -1.31457141721741     
   1.91795894900000        1.00749844118331     
  0.497153036800000       0.263677696379672     
  0.192182467300000       0.132368146910508     
  0.150531183200000      -6.313301503091320E-002
  7.818867730000000E-002  2.200443422772370E-002
 p           6   1.000000    
   24.5973356357000       0.511951647549055     
   6.48816086650000       0.735773690285055     
   2.22635867440000       0.653737198091251     
  0.776897003100000       0.440618369742468     
  0.283424721400000       0.119951706649687     
  9.862825729999999E-002  1.420670402351690E-002
 
          30 0
 s           6   1.000000    
   2.20862762910000       -1.36769631867423     
   1.91795894900000        1.04840446884821     
  0.497153036800000       0.274388350214917     
  0.192182467300000       0.137740186367252     
  0.150531183200000      -7.333314658785318E-002
  7.818867730000000E-002  2.289867801347758E-002
 p           6   1.000000    
   24.5973356357000       0.526420747302353     
   6.48816086650000       0.748909496192786     
   2.22635867440000       0.665937132306228     
  0.776897003100000       0.448157665244456     
  0.283424721400000       0.121997290156777     
  9.862825729999999E-002  1.224282056084318E-002
 
          31 0
 s           6   1.000000    
   2.20862762910000       -1.36791101736838     
   1.91795894900000        1.04856978912427     
  0.497153036800000       0.274431637020571     
  0.192182467300000       0.137761897241549     
  0.150531183200000      -7.337448461928102E-002
  7.818867730000000E-002  2.290229208080843E-002
 p           6   1.000000    
   24.5973356357000       0.526477607614937     
   6.48816086650000       0.748960856397397     
   2.22635867440000       0.665984861784599     
  0.776897003100000       0.448187125817091     
  0.283424721400000       0.122005283098351     
  9.862825729999999E-002  1.223502246882317E-002
 
          32 0
 s           8   1.000000    
   337.005012218500       3.798541155855218E-002
   53.3105310515000       6.380576688011316E-002
   12.2082534814000       0.117426999210931     
   3.41882690980000       0.177083247875685     
   1.10879012580000       0.222258313656546     
  0.478717798300000       0.126903065831302     
  0.212137087700000       8.894750214408553E-002
  6.905810860000000E-002  7.568033755556864E-004
 
          33 0
 s           8   1.000000    
   337.005012218500       3.526794300272356E-002
   53.3105310515000       6.140533612868575E-002
   12.2082534814000       0.110067750033538     
   3.41882690980000       0.168468624107434     
   1.10879012580000       0.207744023796045     
  0.478717798300000       0.124185323577494     
  0.212137087700000       8.704565412345119E-002
  6.905810860000000E-002  6.110580968286400E-003
 
          34 0
 s           8   1.000000    
   337.005012218500       3.551642113184914E-002
   53.3105310515000       6.162786989718513E-002
   12.2082534814000       0.110742125462954     
   3.41882690980000       0.169262025693970     
   1.10879012580000       0.209073121958437     
  0.478717798300000       0.124442775540915     
  0.212137087700000       8.722583065038916E-002
  6.905810860000000E-002  5.628653859558306E-003
 
          35 0
 s           8   1.000000    
   337.005012218500       3.554740662684155E-002
   53.3105310515000       6.165557835863543E-002
   12.2082534814000       0.110826200730507     
   3.41882690980000       0.169360885550373     
   1.10879012580000       0.209238835222214     
  0.478717798300000       0.124474757394716     
  0.212137087700000       8.724821280882991E-002
  6.905810860000000E-002  5.568452713413987E-003
 
          36 0
 s           8   1.000000    
   337.005012218500       3.613373796614720E-002
   53.3105310515000       6.217813675501870E-002
   12.2082534814000       0.112416289438949     
   3.41882690980000       0.171228286491943     
   1.10879012580000       0.212373460214690     
  0.478717798300000       0.125074762727355     
  0.212137087700000       8.766811210764107E-002
  6.905810860000000E-002  4.424876531368886E-003
 
          37 0
 s           8   1.000000    
   337.005012218500       3.588869886253707E-002
   53.3105310515000       6.196015856054311E-002
   12.2082534814000       0.111751957698222     
   3.41882690980000       0.170448629913409     
   1.10879012580000       0.211063702273771     
  0.478717798300000       0.124825211018634     
  0.212137087700000       8.749347122401788E-002
  6.905810860000000E-002  4.903820871970524E-003
 
[MO]
Sym=     1a
Ene=   -1.64768333146222     
Spin= Alpha
Occup=     2.00000000
           1 -4.263034501026566E-002
           2 -8.020840164635804E-004
           3  7.717296127088046E-004
           4  5.073669124822602E-006
           5 -2.893567535264098E-002
           6 -0.119214928830672     
           7  9.538871492471629E-003
           8 -2.137021183923004E-002
           9  3.683734472829635E-002
          10 -2.827361655653495E-002
          11 -3.142033048293136E-002
          12 -0.570177214220882     
          13 -6.629386184840390E-003
          14  2.833829655248386E-003
          15 -1.474587929117556E-002
          16 -7.750315033005128E-002
          17 -2.264882991923812E-002
          18 -9.289074913225280E-002
          19  2.581403496331021E-002
          20  1.777075498188662E-002
          21 -1.515708606755491E-002
          22 -2.550535803640049E-002
          23 -2.657490795186302E-002
          24 -0.445621565435954     
          25 -1.125549818937723E-002
          26 -3.216108425851239E-003
          27  8.211747857140133E-003
          28 -5.994514716257594E-002
          29 -9.250248135736311E-002
          30 -4.474101384702366E-003
          31  1.029348755022294E-002
          32  1.017460416918301E-002
          33 -9.952976424115095E-002
          34  5.406644162664117E-003
          35 -1.445181563952018E-002
          36 -3.843272288322015E-003
          37 -8.180227880864938E-002
          38  2.084123590485772E-003
          39 -5.818208454745096E-003
          40  1.130415186695382E-002
          41 -2.736151873940440E-002
          42  3.470685438595158E-003
          43 -7.488631649312094E-003
          44  8.022664617135173E-003
          45 -5.848119995344142E-002
          46 -5.024520867808573E-003
          47  1.193638027538305E-002
          48 -8.319396369624619E-003
          49 -5.888865657425232E-002
          50 -4.425768873721139E-005
          51  2.350887502853136E-004
          52 -1.759191458578532E-002
          53 -2.154737571509789E-002
          54 -1.233245576648133E-002
          55 -7.800669402279999E-003
          56 -8.645889685702235E-003
          57 -1.404559893814178E-002
          58 -1.952139892711597E-002
          59 -0.104737852269749     
          60 -3.662607442813699E-003
          61 -1.656172859995035E-002
          62 -2.178894271679472E-004
          63 -0.110478362244321     
          64  9.555993258819777E-003
          65  1.486506770067990E-002
          66 -2.571156535797209E-003
          67 -9.314483967820973E-002
          68  1.104163443287004E-002
          69 -6.273614095810619E-003
          70 -5.700313209107351E-003
          71 -3.044347501180948E-002
          72  1.272616763579517E-002
          73 -1.309632051202311E-003
          74 -5.573095203848161E-003
          75 -6.521407964568497E-002
          76 -1.572167345617258E-002
          77 -1.130650268432260E-003
          78  7.117134058447412E-003
          79 -6.575224243378243E-002
          80 -9.325052889693869E-003
          81  1.515460928333572E-002
          82  6.028719557885549E-003
          83 -2.441642215426609E-002
          84 -2.011299067800084E-002
          85 -1.012612396150216E-002
          86 -9.892103297424844E-003
          87 -1.561873836816978E-002
          88 -1.750413695240713E-002
Sym=     2a
Ene=   -1.62335181185127     
Spin= Alpha
Occup=     2.00000000
           1 -1.238187248672743E-002
           2  1.446603736959341E-002
           3 -1.176563463971131E-002
           4  5.765700614999210E-003
           5  2.842263798729660E-002
           6  0.126765428378011     
           7 -1.334714762386039E-002
           8  2.315702319323107E-002
           9 -4.000905154025294E-002
          10  2.825679195516310E-002
          11  2.880338752741495E-002
          12  0.566284351879966     
          13  6.118559798044904E-003
          14 -8.421557182471143E-004
          15  1.343690004809810E-002
          16  7.399029653719205E-002
          17 -2.144961750446827E-002
          18 -9.516475924628726E-002
          19  2.478013377672471E-002
          20  1.799671047753147E-002
          21 -1.644350813127664E-002
          22 -1.902111277633642E-002
          23 -2.116430409775198E-002
          24 -0.431095644891098     
          25 -9.294919157940527E-003
          26 -1.301069219012545E-003
          27  6.518861665671249E-003
          28 -5.741003333911750E-002
          29 -0.162485223057753     
          30 -7.397181161493427E-003
          31  1.719544814798927E-002
          32  1.756083195528916E-002
          33 -0.158687663707607     
          34  7.864360041186130E-003
          35 -1.993000631274925E-002
          36 -5.962782280047540E-003
          37 -0.140156027781498     
          38  4.137968516342581E-003
          39 -1.063436156371565E-002
          40  1.982857086657236E-002
          41 -5.228658531370504E-002
          42  1.799928762534203E-003
          43 -7.118308723317384E-003
          44  1.560716246913949E-002
          45 -0.103341389653165     
          46 -8.519969682833315E-003
          47  2.035153547592917E-002
          48 -1.499616416196532E-002
          49 -0.102956785690051     
          50 -1.039406601584358E-003
          51  2.534303971432795E-003
          52 -2.873263839933228E-002
          53 -3.824433924660380E-002
          54 -1.011254173919676E-002
          55 -1.284607781318057E-002
          56 -1.096611361651593E-002
          57 -2.468982783010465E-002
          58 -2.868988472102091E-002
          59 -3.983913786557457E-002
          60 -1.249561279269632E-003
          61 -6.236871579403348E-003
          62 -1.612592841628002E-004
          63 -3.956449666579544E-002
          64  2.242108587612726E-003
          65  4.789045951189992E-003
          66 -8.565974548689753E-004
          67 -3.373635587752241E-002
          68  4.550439837433468E-003
          69 -2.115508943849869E-003
          70 -2.372845776960103E-003
          71 -1.294533308798789E-002
          72  2.027714714921207E-003
          73 -2.406029543868118E-003
          74 -3.166744547250164E-003
          75 -2.541464195770473E-002
          76 -5.972243273299141E-003
          77 -2.939927032803103E-004
          78  2.672032025958141E-003
          79 -2.506826046852271E-002
          80 -4.019111014650428E-003
          81  6.298870658442637E-003
          82  2.329338619261763E-003
          83 -9.305945186495978E-003
          84  5.955857508451839E-004
          85 -3.762944090233309E-003
          86 -2.066241540756897E-003
          87 -6.088895719296758E-003
          88 -7.346108480785193E-003
Sym=     3a
Ene=   -1.62107070705616     
Spin= Alpha
Occup=     2.00000000
           1 -1.082162741765463E-002
           2  1.491702716107724E-002
           3  1.922006367434132E-002
           4 -9.830720288670920E-003
           5  5.743021273918752E-003
           6  2.797514875136078E-002
           7 -4.215621757954198E-003
           8  3.285812490979337E-003