[Molden Format]
[Title]
[Atoms] AU
H      1     1  0.00000000000000E+00  0.00000000000000E+00  0.00000000000000E+00
[GTO]
           1 0
 s           8   1.000000    
   337.005012218500       4.669015897007304E-002
   53.3105310515000       7.091577987848435E-002
   12.2082534814000       0.140721847829025     
   3.41882690980000       0.203593209054225     
   1.10879012580000       0.268380376522576     
  0.478717798300000       0.133906414335280     
  0.212137087700000       9.384565377704074E-002
  6.905810860000000E-002 -1.783996510828336E-002
 
[MO]
Sym=     1a
Ene=  -0.621421236100275     
Spin= Alpha
Occup=     0.00000000
           1   1.00000000000000     
