[Molden Format]
[Title]
[Atoms] AU
Zn     1    30  0.21753697580917E+00  0.10583852818454E+00 -0.63822810823340E+00
H      2     1  0.39702623205620E+00  0.10805744323654E+01 -0.80477488189130E+01
C      3     6  0.61213640226650E+00  0.17629247570361E+01 -0.61211569939194E+01
H      4     1  0.22377182213332E+01  0.30225148065912E+01 -0.59944821437625E+01
H      5     1 -0.10901477778572E+01  0.27614244719628E+01 -0.55376298784950E+01
O      6     8  0.89465356832984E+00 -0.35503235617860E+00 -0.44289936248646E+01
H      7     1  0.23294280632485E+01 -0.13540061772404E+01 -0.49177746666675E+01
N      8     7 -0.73368472876735E+01 -0.28184880721090E+00  0.11343640803899E+01
N      9     7 -0.35280607052934E+01 -0.10388774202601E+00 -0.40490755177490E+00
C     10     6 -0.48827536846370E+01 -0.41808876791804E-01  0.16926176911046E+01
C     11     6 -0.38758385302823E+01  0.19670402476224E+00  0.42829640430579E+01
C     12     6 -0.75578017055936E+01 -0.51376744371092E+00 -0.14302924041904E+01
C     13     6 -0.51824139576618E+01 -0.40331239145354E+00 -0.23642975640044E+01
H     14     1 -0.87745284366408E+01 -0.29366738311154E+00  0.23791845153453E+01
H     15     1 -0.18921940890904E+01  0.74019456547131E+00  0.42066211095629E+01
H     16     1 -0.40357976328418E+01 -0.15954228300927E+01  0.52851196732440E+01
H     17     1 -0.49280363672041E+01  0.16092425986991E+01  0.53448701973860E+01
H     18     1 -0.93475431798040E+01 -0.72683097035722E+00 -0.23605793673164E+01
H     19     1 -0.45609267743545E+01 -0.52023991072071E+00 -0.42911865179031E+01
N     20     7  0.29021143991246E+01 -0.65326703227758E+01  0.23774070187117E+01
N     21     7  0.19513001977506E+01 -0.27402267553570E+01  0.11018922397603E+01
C     22     6  0.15407882873441E+01 -0.51785308094242E+01  0.73362772990968E+00
C     23     6 -0.15071740951149E+00 -0.62858429315329E+01 -0.11881509639186E+01
C     24     6  0.42313161991750E+01 -0.48914800966828E+01  0.38676287838256E+01
C     25     6  0.36240387592126E+01 -0.25451734266388E+01  0.30616828025564E+01
H     26     1  0.29498270720192E+01 -0.84304657081601E+01  0.24974465984954E+01
H     27     1 -0.11595821715522E+01 -0.47846091117211E+01 -0.21673289019972E+01
H     28     1 -0.15129631147396E+01 -0.75499234189192E+01 -0.30448797463311E+00
H     29     1  0.92549862918672E+00 -0.73836000101481E+01 -0.25578900738087E+01
H     30     1  0.54713516577845E+01 -0.55139596770123E+01  0.53474904549921E+01
H     31     1  0.42633640086125E+01 -0.75026923101070E+00  0.37579406347522E+01
N     32     7  0.39072067869502E+01  0.68128349096957E+01  0.88337104083357E+00
N     33     7  0.15182416816433E+01  0.35237720872336E+01  0.25185000511252E+00
C     34     6  0.38638294468716E+01  0.43850918759777E+01  0.18096723868667E+00
C     35     6  0.61240582410586E+01  0.29456819603787E+01 -0.59407541820955E+00
C     36     6  0.14859795045501E+01  0.75378327570229E+01  0.14222950049416E+01
C     37     6  0.21414307186966E-01  0.54835640602694E+01  0.10220241926269E+01
H     38     1  0.54498208565445E+01  0.79202225449120E+01  0.99534088765922E+00
H     39     1  0.56390919907098E+01  0.95764036423828E+00 -0.80612860295083E+00
H     40     1  0.76149066501153E+01  0.31262237760168E+01  0.81165784003605E+00
H     41     1  0.68603171555845E+01  0.36586884646964E+01 -0.23802009053389E+01
H     42     1  0.10165043352902E+01  0.94137742373073E+01  0.20344475345213E+01
H     43     1 -0.19867946623775E+01  0.52842589680620E+01  0.12293396498328E+01
[GTO]
           1 0
 s           5   1.000000    
   1.82046632240000       0.241966368115671     
   1.13274582070000      -0.440007741999101     
  0.315046004900000       9.005350694928750E-003
  0.148617277200000       0.167527588555987     
  5.129314220000000E-002  1.309068003763772E-002
 p           3   1.000000    
   1.22375302100000      -0.202905776723929     
  0.183640111800000       0.161491178063276     
  4.740596480000000E-002  4.545051262485341E-003
 
           2 0
 s           8   1.000000    
   337.005012218500       3.574197281265402E-002
   53.3105310515000       6.182935446919868E-002
   12.2082534814000       0.111354029397370     
   3.41882690980000       0.169981254521065     
   1.10879012580000       0.210279256771746     
  0.478717798300000       0.124674954812222     
  0.212137087700000       8.738831786328323E-002
  6.905810860000000E-002  5.189902152550288E-003
 
           3 0
 s           6   1.000000    
   2.20862762910000       -1.33595776431166     
   1.91795894900000        1.02396569995016     
  0.497153036800000       0.267989406416143     
  0.192182467300000       0.134530734009537     
  0.150531183200000      -6.723245295737743E-002
  7.818867730000000E-002  2.236442307650128E-002
 p           6   1.000000    
   24.5973356357000       0.517873451840038     
   6.48816086650000       0.741165616621316     
   2.22635867440000       0.658743245074829     
  0.776897003100000       0.443714134088037     
  0.283424721400000       0.120791681837601     
  9.862825729999999E-002  1.340782095878843E-002
 
           4 0
 s           8   1.000000    
   337.005012218500       3.538921067160973E-002
   53.3105310515000       6.151401610065427E-002
   12.2082534814000       0.110396909032156     
   3.41882690980000       0.168855976148132     
   1.10879012580000       0.208392726556931     
  0.478717798300000       0.124311189023583     
  0.212137087700000       8.713374079115511E-002
  6.905810860000000E-002  5.875565967945115E-003
 
           5 0
 s           8   1.000000    
   337.005012218500       3.540705480526648E-002
   53.3105310515000       6.152999606682404E-002
   12.2082534814000       0.110445337941914     
   3.41882690980000       0.168912951364924     
   1.10879012580000       0.208488173367861     
  0.478717798300000       0.124329674641874     
  0.212137087700000       8.714667785826019E-002
  6.905810860000000E-002  5.840954483247941E-003
 
           6 0
 s           6   1.000000    
   3.48359494310000       -1.32359478054403     
   2.85986576440000        1.12486194214847     
  0.740681029000000       0.298027766114627     
  0.344926919200000       8.211216926478239E-002
  0.261978532900000       3.982394404660993E-002
  9.461635039999999E-002  1.058343667015305E-002
 p           6   1.000000    
   37.6414713255000        1.51210504444649     
   9.71308856170000        1.83447456628732     
   3.13717714760000        1.34522900600999     
   1.12138051620000       0.648499854498025     
  0.398077926500000       0.185331014599647     
  0.123047771000000       1.575655814653682E-002
 
           7 0
 s           8   1.000000    
   337.005012218500       3.786190767609905E-002
   53.3105310515000       6.369830790953801E-002
   12.2082534814000       0.117093322379676     
   3.41882690980000       0.176694793975895     
   1.10879012580000       0.221599714050443     
  0.478717798300000       0.126784358284425     
  0.212137087700000       8.886443950843063E-002
  6.905810860000000E-002  1.004210937263323E-003
 
           8 0
 s           6   1.000000    
   2.69507309610000       -1.15497122648982     
   2.24947021280000       0.953663091928438     
  0.611851695800000       0.240050492642755     
  0.303726665600000       9.171030141815631E-002
  0.171628270400000       3.192020654577718E-002
  7.154913430000000E-002  7.222739675809282E-003
 p           6   1.000000    
   27.5476401720000       0.975824904555177     
   7.12656627820000        1.23057699368107     
   2.35805520400000       0.941970396207650     
  0.845047262300000       0.489980045248042     
  0.301063057900000       0.126612483410011     
  9.457452580000000E-002  8.839517604274136E-003
 
           9 0
 s           6   1.000000    
   2.69507309610000       -1.14421365811871     
   2.24947021280000       0.944650782623016     
  0.611851695800000       0.237774332766924     
  0.303726665600000       9.084293591399455E-002
  0.171628270400000       3.161120370428335E-002
  7.154913430000000E-002  8.528399074996576E-003
 p           6   1.000000    
   27.5476401720000       0.956337939304745     
   7.12656627820000        1.21516487913547     
   2.35805520400000       0.924126163649763     
  0.845047262300000       0.483158126857955     
  0.301063057900000       0.125263935903643     
  9.457452580000000E-002  1.060624997824564E-002
 
          10 0
 s           6   1.000000    
   2.20862762910000       -1.43642312882498     
   1.91795894900000        1.10132604578593     
  0.497153036800000       0.288245157018375     
  0.192182467300000       0.144690158430577     
  0.150531183200000      -8.661404048950766E-002
  7.818867730000000E-002  2.405560206055003E-002
 p           6   1.000000    
   24.5973356357000       0.543991544530847     
   6.48816086650000       0.764679643681758     
   2.22635867440000       0.680603561800038     
  0.776897003100000       0.457196667702058     
  0.283424721400000       0.124449509299070     
  9.862825729999999E-002  9.801878720106863E-003
 
          11 0
 s           6   1.000000    
   2.20862762910000       -1.31193056886001     
   1.91795894900000        1.00546503188776     
  0.497153036800000       0.263145278401840     
  0.192182467300000       0.132101106238893     
  0.150531183200000      -6.262743532083258E-002
  7.818867730000000E-002  2.195998216917967E-002
 p           6   1.000000    
   24.5973356357000       0.511211122841433     
   6.48816086650000       0.735097914382378     
   2.22635867440000       0.653109949691584     
  0.776897003100000       0.440230272312654     
  0.283424721400000       0.119846401756721     
  9.862825729999999E-002  1.430613758770841E-002
 
          12 0
 s           6   1.000000    
   2.20862762910000       -1.36561597939512     
   1.91795894900000        1.04680258670270     
  0.497153036800000       0.273968919775769     
  0.192182467300000       0.137529817348144     
  0.150531183200000      -7.293264701036720E-002
  7.818867730000000E-002  2.286365926559878E-002
 p           6   1.000000    
   24.5973356357000       0.525869136094168     
   6.48816086650000       0.748411134749354     
   2.22635867440000       0.665474012573042     
  0.776897003100000       0.447871794317391     
  0.283424721400000       0.121919730416951     
  9.862825729999999E-002  1.231843787252871E-002
 
          13 0
 s           6   1.000000    
   2.20862762910000       -1.36783905381936     
   1.91795894900000        1.04851437642419     
  0.497153036800000       0.274417127978804     
  0.192182467300000       0.137754620105378     
  0.150531183200000      -7.336062867184763E-002
  7.818867730000000E-002  2.290108070350060E-002
 p           6   1.000000    
   24.5973356357000       0.526458550368924     
   6.48816086650000       0.748943642793424     
   2.22635867440000       0.665968865009478     
  0.776897003100000       0.448177251989158     
  0.283424721400000       0.122002604232580     
  9.862825729999999E-002  1.223763614105059E-002
 
          14 0
 s           8   1.000000    
   337.005012218500       3.794000697548880E-002
   53.3105310515000       6.376627972295767E-002
   12.2082534814000       0.117304336309388     
   3.41882690980000       0.176940472966003     
   1.10879012580000       0.222016200138208     
  0.478717798300000       0.126859479591232     
  0.212137087700000       8.891700385468114E-002
  6.905810860000000E-002  8.478063100289539E-004
 
          15 0
 s           8   1.000000    
   337.005012218500       3.516850432705394E-002
   53.3105310515000       6.131611409218821E-002
   12.2082534814000       0.109797791242965     
   3.41882690980000       0.168150800999265     
   1.10879012580000       0.207212024515020     
  0.478717798300000       0.124081805596720     
  0.212137087700000       8.697320680643920E-002
  6.905810860000000E-002  6.303028851471791E-003
 
          16 0
 s           8   1.000000    
   337.005012218500       3.542026513768855E-002
   53.3105310515000       6.154182434760048E-002
   12.2082534814000       0.110481189782639     
   3.41882690980000       0.168955127441105     
   1.10879012580000       0.208558833090283     
  0.478717798300000       0.124343354072160     
  0.212137087700000       8.715625132987929E-002
  6.905810860000000E-002  5.815326044813993E-003
 
          17 0
 s           8   1.000000    
   337.005012218500       3.545899741795765E-002
   53.3105310515000       6.157649480249170E-002
   12.2082534814000       0.110586301590456     
   3.41882690980000       0.169078768216592     
   1.10879012580000       0.208765998972063     
  0.478717798300000       0.124383433242983     
  0.212137087700000       8.718430046606854E-002
  6.905810860000000E-002  5.740160045785069E-003
 
          18 0
 s           8   1.000000    
   337.005012218500       3.603450700451166E-002
   53.3105310515000       6.208993553166507E-002
   12.2082534814000       0.112147296100743     
   3.41882690980000       0.170912690292057     
   1.10879012580000       0.211843106606379     
  0.478717798300000       0.124973913491345     
  0.212137087700000       8.759753628230402E-002
  6.905810860000000E-002  4.619007502463763E-003
 
          19 0
 s           8   1.000000    
   337.005012218500       3.586080753416975E-002
   53.3105310515000       6.193531004957482E-002
   12.2082534814000       0.111676322829381     
   3.41882690980000       0.170359816304811     
   1.10879012580000       0.210914596471188     
  0.478717798300000       0.124796696232978     
  0.212137087700000       8.747351587936635E-002
  6.905810860000000E-002  4.958242864939860E-003
 
          20 0
 s           6   1.000000    
   2.69507309610000       -1.15499795894485     
   2.24947021280000       0.953685489248886     
  0.611851695800000       0.240056149442837     
  0.303726665600000       9.171245699756052E-002
  0.171628270400000       3.192097457869904E-002
  7.154913430000000E-002  7.219475892623998E-003
 p           6   1.000000    
   27.5476401720000       0.975873054336844     
   7.12656627820000        1.23061479132583     
   2.35805520400000       0.942014457075682     
  0.845047262300000       0.489996809585580     
  0.301063057900000       0.126615778962737     
  9.457452580000000E-002  8.835092063496197E-003
 
          21 0
 s           6   1.000000    
   2.69507309610000       -1.14398174919141     
   2.24947021280000       0.944456513433306     
  0.611851695800000       0.237725268823635     
  0.303726665600000       9.082423908019972E-002
  0.171628270400000       3.160454373112350E-002
  7.154913430000000E-002  8.556378060001802E-003
 p           6   1.000000    
   27.5476401720000       0.955915536023360     
   7.12656627820000        1.21482832927295     
   2.35805520400000       0.923739107558534     
  0.845047262300000       0.483009453628469     
  0.301063057900000       0.125234385951288     
  9.457452580000000E-002  1.064402132516797E-002
 
          22 0
 s           6   1.000000    
   2.20862762910000       -1.43635578970004     
   1.91795894900000        1.10127419157232     
  0.497153036800000       0.288231579655710     
  0.192182467300000       0.144683348645360     
  0.150531183200000      -8.660097988240943E-002
  7.818867730000000E-002  2.405446846507849E-002
 p           6   1.000000    
   24.5973356357000       0.543974929903870     
   6.48816086650000       0.764664829640039     
   2.22635867440000       0.680589773735898     
  0.776897003100000       0.457188183408827     
  0.283424721400000       0.124447207715802     
  9.862825729999999E-002  9.804217072708713E-003
 
          23 0
 s           6   1.000000    
   2.20862762910000       -1.31243719869265     
   1.91795894900000        1.00585512816228     
  0.497153036800000       0.263247419301921     
  0.192182467300000       0.132152336248482     
  0.150531183200000      -6.272441683375483E-002
  7.818867730000000E-002  2.196851000473158E-002
 p           6   1.000000    
   24.5973356357000       0.511353347505000     
   6.48816086650000       0.735227729327668     
   2.22635867440000       0.653230439803822     
  0.776897003100000       0.440304826648271     
  0.283424721400000       0.119866631087152     
  9.862825729999999E-002  1.428704844260516E-002
 
          24 0
 s           6   1.000000    
   2.20862762910000       -1.36552893725027     
   1.91795894900000        1.04673556342435     
  0.497153036800000       0.273951370668807     
  0.192182467300000       0.137521015438285     
  0.150531183200000      -7.291589187605307E-002
  7.818867730000000E-002  2.286219406982089E-002
 p           6   1.000000    
   24.5973356357000       0.525846030421166     
   6.48816086650000       0.748390255324450     
   2.22635867440000       0.665454610107544     
  0.776897003100000       0.447859817137455     
  0.283424721400000       0.121916480877784     
  9.862825729999999E-002  1.232160398595798E-002
 
          25 0
 s           6   1.000000    
   2.20862762910000       -1.36665558624737     
   1.91795894900000        1.04760309415016     
  0.497153036800000       0.274178521449594     
  0.192182467300000       0.137634944914661     
  0.150531183200000      -7.313277748429546E-002
  7.818867730000000E-002  2.288115915887149E-002
 p           6   1.000000    
   24.5973356357000       0.526144941866587     
   6.48816086650000       0.748660340018367     
   2.22635867440000       0.665705592572112     
  0.776897003100000       0.448014745519061     
  0.283424721400000       0.121958514593155     
  9.862825729999999E-002  1.228063672772880E-002
 
          26 0
 s           8   1.000000    
   337.005012218500       3.793763369484354E-002
   53.3105310515000       6.376421514463097E-002
   12.2082534814000       0.117297924476805     
   3.41882690980000       0.176933009052027     
   1.10879012580000       0.222003544570956     
  0.478717798300000       0.126857199593204     
  0.212137087700000       8.891540848496390E-002
  6.905810860000000E-002  8.525615019237797E-004
 
          27 0
 s           8   1.000000    
   337.005012218500       3.519700716274671E-002
   53.3105310515000       6.134169812725083E-002
   12.2082534814000       0.109875176160818     
   3.41882690980000       0.168241919076044     
   1.10879012580000       0.207364521556795     
  0.478717798300000       0.124111506133089     
  0.212137087700000       8.699399284450521E-002
  6.905810860000000E-002  6.247890267510861E-003
 
          28 0
 s           8   1.000000    
   337.005012218500       3.546119300678348E-002
   53.3105310515000       6.157845970832709E-002
   12.2082534814000       0.110592259779192     
   3.41882690980000       0.169085776140534     
   1.10879012580000       0.208777742157481     
  0.478717798300000       0.124385703908725     
  0.212137087700000       8.718588957413939E-002
  6.905810860000000E-002  5.735898082493597E-003
 
          29 0
 s           8   1.000000    
   337.005012218500       3.545099962191364E-002
   53.3105310515000       6.156933691428286E-002
   12.2082534814000       0.110564597711684     
   3.41882690980000       0.169053239956154     
   1.10879012580000       0.208723222221868     
  0.478717798300000       0.124375160811252     
  0.212137087700000       8.717851106613947E-002
  6.905810860000000E-002  5.755683970700046E-003
 
          30 0
 s           8   1.000000    
   337.005012218500       3.602998837684228E-002
   53.3105310515000       6.208591684978814E-002
   12.2082534814000       0.112135045982382     
   3.41882690980000       0.170898314829194     
   1.10879012580000       0.211818954696312     
  0.478717798300000       0.124969314385160     
  0.212137087700000       8.759431774735124E-002
  6.905810860000000E-002  4.627841770465666E-003
 
          31 0
 s           8   1.000000    
   337.005012218500       3.578198380041372E-002
   53.3105310515000       6.186504451141524E-002
   12.2082534814000       0.111462551203478     
   3.41882690980000       0.170108742988128     
   1.10879012580000       0.210493181959807     
  0.478717798300000       0.124715989700576     
  0.212137087700000       8.741703528455171E-002
  6.905810860000000E-002  5.111942217675922E-003
 
          32 0
 s           6   1.000000    
   2.69507309610000       -1.15498544111424     
   2.24947021280000       0.953675001402045     
  0.611851695800000       0.240053500569974     
  0.303726665600000       9.171144761847752E-002
  0.171628270400000       3.192061493687984E-002
  7.154913430000000E-002  7.221004214880245E-003
 p           6   1.000000    
   27.5476401720000       0.975850507734114     
   7.12656627820000        1.23059709239019     
   2.35805520400000       0.941993825165289     
  0.845047262300000       0.489988959579486     
  0.301063057900000       0.126614235811162     
  9.457452580000000E-002  8.837164403785285E-003
 
          33 0
 s           6   1.000000    
   2.69507309610000       -1.14400719040505     
   2.24947021280000       0.944477825404817     
  0.611851695800000       0.237730651298326     
  0.303726665600000       9.082629018442823E-002
  0.171628270400000       3.160527435036001E-002
  7.154913430000000E-002  8.553309010866388E-003
 p           6   1.000000    
   27.5476401720000       0.955961879633048     
   7.12656627820000        1.21486525855118     
   2.35805520400000       0.923781573609645     
  0.845047262300000       0.483025766800427     
  0.301063057900000       0.125237628642815     
  9.457452580000000E-002  1.063987833548651E-002
 
          34 0
 s           6   1.000000    
   2.20862762910000       -1.43619939767245     
   1.91795894900000        1.10115376254985     
  0.497153036800000       0.288200046856591     
  0.192182467300000       0.144667533232771     
  0.150531183200000      -8.657064758787415E-002
  7.818867730000000E-002  2.405183574185387E-002
 p           6   1.000000    
   24.5973356357000       0.543936338776745     
   6.48816086650000       0.764630420036570     
   2.22635867440000       0.680557747323232     
  0.776897003100000       0.457168476301368     
  0.283424721400000       0.124441861653735     
  9.862825729999999E-002  9.809648185159859E-003
 
          35 0
 s           6   1.000000    
   2.20862762910000       -1.31208393713982     
   1.91795894900000        1.00558312281718     
  0.497153036800000       0.263176198752728     
  0.192182467300000       0.132116614716940     
  0.150531183200000      -6.265679327599785E-002
  7.818867730000000E-002  2.196256373703728E-002
 p           6   1.000000    
   24.5973356357000       0.511254185468323     
   6.48816086650000       0.735137220906742     
   2.22635867440000       0.653146432618892     
  0.776897003100000       0.440252846625157     
  0.283424721400000       0.119852526999013     
  9.862825729999999E-002  1.430035819835273E-002
 
          36 0
 s           6   1.000000    
   2.20862762910000       -1.36548273158001     
   1.91795894900000        1.04669998462089     
  0.497153036800000       0.273942054857345     
  0.192182467300000       0.137516343010588     
  0.150531183200000      -7.290699760096173E-002
  7.818867730000000E-002  2.286141628166381E-002
 p           6   1.000000    
   24.5973356357000       0.525833764096495     
   6.48816086650000       0.748379170729929     
   2.22635867440000       0.665444309625365     
  0.776897003100000       0.447853458610780     
  0.283424721400000       0.121914755740142     
  9.862825729999999E-002  1.232328476727167E-002
 
          37 0
 s           6   1.000000    
   2.20862762910000       -1.36666121555867     
   1.91795894900000        1.04760742877642     
  0.497153036800000       0.274179656410866     
  0.192182467300000       0.137635514164452     
  0.150531183200000      -7.313386121969231E-002
  7.818867730000000E-002  2.288125391814252E-002
 p           6   1.000000    
   24.5973356357000       0.526146434499647     
   6.48816086650000       0.748661688559488     
   2.22635867440000       0.665706845751002     
  0.776897003100000       0.448015519071435     
  0.283424721400000       0.121958724465915     
  9.862825729999999E-002  1.228043211075983E-002
 
          38 0
 s           8   1.000000    
   337.005012218500       3.793234012048204E-002
   53.3105310515000       6.375960991276779E-002
   12.2082534814000       0.117283622857039     
   3.41882690980000       0.176916360478798     
   1.10879012580000       0.221975316340853     
  0.478717798300000       0.126852113454570     
  0.212137087700000       8.891184958980596E-002
  6.905810860000000E-002  8.631673654535159E-004
 
          39 0
 s           8   1.000000    
   337.005012218500       3.515802237710444E-002
   53.3105310515000       6.130670358261314E-002
   12.2082534814000       0.109769331912952     
   3.41882690980000       0.168117288567766     
   1.10879012580000       0.207155942306024     
  0.478717798300000       0.124070877454310     
  0.212137087700000       8.696555869387457E-002
  6.905810860000000E-002  6.323301250623327E-003
 
          40 0
 s           8   1.000000    
   337.005012218500       3.543899743124901E-002
   53.3105310515000       6.155859400522705E-002
   12.2082534814000       0.110532026420278     
   3.41882690980000       0.169014927852905     
   1.10879012580000       0.208659026956430     
  0.478717798300000       0.124362743076639     
  0.212137087700000       8.716982060150980E-002
  6.905810860000000E-002  5.778977635061428E-003
 
          41 0
 s           8   1.000000    
   337.005012218500       3.540419924412457E-002
   53.3105310515000       6.152743903070511E-002
   12.2082534814000       0.110437588059152     
   3.41882690980000       0.168903834120440     
   1.10879012580000       0.208472899336892     
  0.478717798300000       0.124326717030727     
  0.212137087700000       8.714460798988932E-002
  6.905810860000000E-002  5.846493804944623E-003
 
          42 0
 s           8   1.000000    
   337.005012218500       3.603299127875792E-002
   53.3105310515000       6.208858752982436E-002
   12.2082534814000       0.112143186939169     
   3.41882690980000       0.170907868237372     
   1.10879012580000       0.211835005118503     
  0.478717798300000       0.124972370835752     
  0.212137087700000       8.759645670504011E-002
  6.905810860000000E-002  4.621970919984616E-003
 
          43 0
 s           8   1.000000    
   337.005012218500       3.577492211545427E-002
   53.3105310515000       6.185874658011473E-002
   12.2082534814000       0.111443398340469     
   3.41882690980000       0.170086244208819     
   1.10879012580000       0.210455426250598     
  0.478717798300000       0.124708750637330     
  0.212137087700000       8.741196918046233E-002
  6.905810860000000E-002  5.125704484756405E-003
 
[MO]
Sym=     1a
Ene=   -1.62785044371450     
Spin= Alpha
Occup=     2.00000000
           1 -4.440186663960949E-002
           2  1.198669007846647E-003
           3 -8.389709357624671E-004
           4 -1.152842396250560E-004
           5 -2.810540630966692E-002
           6 -0.118087388138683     
           7 -4.392931313082677E-003
           8  3.410673506594730E-002
           9 -2.698840028190040E-002
          10 -2.954527118642142E-002
          11 -3.055284994007344E-002
          12 -0.555242121526524     
          13 -4.185386302900360E-003
          14 -1.177097135081716E-002
          15  1.151894181217768E-002
          16 -7.502070513255955E-002
          17 -0.124823161729497     
          18 -1.663655260037830E-002
          19 -3.691023921491352E-004
          20  1.151654463194407E-002
          21 -0.131607490560775     
          22  1.925007788913408E-002
          23  1.303378849815133E-003
          24 -1.817037383814733E-003
          25 -0.109643465514901     
          26  6.341277835609379E-003
          27  1.790129441357272E-003
          28  1.632052424426641E-002
          29 -3.793708503706439E-002
          30  7.636943215766571E-003
          31  1.288185824202339E-003
          32  1.206001565250009E-002
          33 -7.951516214607848E-002
          34 -1.558567815671342E-002
          35 -2.381144971563530E-003
          36 -1.350890279039038E-002
          37 -8.024516170184766E-002
          38  2.023258126860000E-003
          39 -1.721664020696566E-003
          40 -2.342296276542409E-002
          41 -2.933593119595463E-002
          42 -1.289994221195584E-002
          43 -1.016730550329108E-002
          44 -1.027759510836865E-002
          45 -1.915905489426884E-002
          46 -2.583143429360169E-002
          47 -0.128853596040598     
          48  2.040078012149009E-003
          49 -2.037836626047584E-002
          50  3.249203635828384E-003
          51 -0.134173730455013     
          52 -7.559648616106473E-003
          53  1.630554223168029E-002
          54 -8.153906928430169E-003
          55 -0.113275748077820     
          56 -1.069568260791490E-002
          57 -7.379138481339300E-003
          58 -1.152586470630640E-002
          59 -3.822216419203926E-002
          60 -1.046143653949353E-002
          61 -2.842626059599407E-003
          62 -1.161173642102714E-002
          63 -8.120950974443010E-002
          64  1.380248877217231E-002
          65 -1.389056948693276E-003
          66  1.624823646323558E-002
          67 -8.179589089642444E-002
          68  9.575733702773056E-003
          69  1.816233986377733E-002
          70  1.077007288096269E-002
          71 -3.023986476621015E-002
          72 -1.973036154944735E-002
          73 -1.116998001652788E-002
          74 -1.186725930222461E-002
          75 -1.949948484626696E-002
          76 -2.196712469570521E-002
          77 -0.142445311787144     
          78  1.691348242614527E-002
          79  1.522722464902485E-002
          80  2.111669091211490E-003