[Molden Format]
[Title]
[Atoms] AU
N      1     7  0.19565236468082E+00  0.20948689180960E+01 -0.50701348323592E-04
N      2     7  0.64779334520897E-01 -0.20905288789001E+01 -0.87324238018382E-04
C      3     6 -0.13249760680693E+01 -0.77393538966004E-02 -0.14894820256674E-03
C      4     6 -0.41366816247227E+01  0.10789919665713E+00 -0.35611886289903E-03
C      5     6  0.26819173236983E+01  0.12945568653422E+01  0.28119122737796E-04
C      6     6  0.25497469021597E+01 -0.13005795921491E+01  0.59526368698962E-05
H      7     1 -0.39245617720214E+00  0.39168195268441E+01 -0.54329622225243E-04
H      8     1 -0.48746153721073E+01  0.10880285606686E+01  0.16788225165675E+01
H      9     1 -0.48743207638254E+01  0.10865135673420E+01 -0.16805544504378E+01
H     10     1 -0.48713890051293E+01 -0.18264109101060E+01  0.39155122521984E-03
H     11     1  0.42509468736047E+01  0.26107369014328E+01  0.71941868456174E-04
H     12     1  0.41003510945359E+01 -0.26429133981529E+01  0.36981937632974E-04
[GTO]
           1 0
 s           6   1.000000    
   2.69507309610000       -1.14959452951111     
   2.24947021280000       0.949158504482655     
  0.611851695800000       0.238912798002570     
  0.303726665600000       9.127676855450104E-002
  0.171628270400000       3.176574873235721E-002
  7.154913430000000E-002  7.877235250231419E-003
 p           6   1.000000    
   27.5476401720000       0.966112121198464     
   7.12656627820000        1.22292349762220     
   2.35805520400000       0.933079375137114     
  0.845047262300000       0.486588978715699     
  0.301063057900000       0.125943976088136     
  9.457452580000000E-002  9.726098867911296E-003
 
           2 0
 s           6   1.000000    
   2.69507309610000       -1.13739365507047     
   2.24947021280000       0.938937968163547     
  0.611851695800000       0.236331540392134     
  0.303726665600000       9.029312528937299E-002
  0.171628270400000       3.141537127660883E-002
  7.154913430000000E-002  9.348297515127519E-003
 p           6   1.000000    
   27.5476401720000       0.943878614085826     
   7.12656627820000        1.20519548390313     
   2.35805520400000       0.912704972775341     
  0.845047262300000       0.478759099934033     
  0.301063057900000       0.124386858738905     
  9.457452580000000E-002  1.171136573465431E-002
 
           3 0
 s           6   1.000000    
   2.20862762910000       -1.41477363236781     
   1.91795894900000        1.08465506237939     
  0.497153036800000       0.283880076341708     
  0.192182467300000       0.142500830223229     
  0.150531183200000      -8.241993431481978E-002
  7.818867730000000E-002  2.369115483969723E-002
 p           6   1.000000    
   24.5973356357000       0.538590399999170     
   6.48816086650000       0.759853920710381     
   2.22635867440000       0.676113158166373     
  0.776897003100000       0.454432198372453     
  0.283424721400000       0.123699560714827     
  9.862825729999999E-002  1.055897559591957E-002
 
           4 0
 s           6   1.000000    
   2.20862762910000       -1.28506053797705     
   1.91795894900000       0.984775750316262     
  0.497153036800000       0.257728102782712     
  0.192182467300000       0.129384051459872     
  0.150531183200000      -5.749110495885256E-002
  7.818867730000000E-002  2.150769770267235E-002
 p           6   1.000000    
   24.5973356357000       0.503557958754033     
   6.48816086650000       0.728094542565631     
   2.22635867440000       0.646611596574177     
  0.776897003100000       0.436206939878009     
  0.283424721400000       0.118754697345596     
  9.862825729999999E-002  1.532777915759129E-002
 
           5 0
 s           6   1.000000    
   2.20862762910000       -1.33534504534709     
   1.91795894900000        1.02349390972925     
  0.497153036800000       0.267865874989405     
  0.192182467300000       0.134468775499655     
  0.150531183200000      -6.711487708360825E-002
  7.818867730000000E-002  2.235410931108165E-002
 p           6   1.000000    
   24.5973356357000       0.517705636148200     
   6.48816086650000       0.741013115268547     
   2.22635867440000       0.658601625147422     
  0.776897003100000       0.443626595833904     
  0.283424721400000       0.120767930483105     
  9.862825729999999E-002  1.343055232960690E-002
 
           6 0
 s           6   1.000000    
   2.20862762910000       -1.34425920583229     
   1.91795894900000        1.03035778257813     
  0.497153036800000       0.269663081019542     
  0.192182467300000       0.135370182967384     
  0.150531183200000      -6.882617443539857E-002
  7.818867730000000E-002  2.250415992471955E-002
 p           6   1.000000    
   24.5973356357000       0.520136519702927     
   6.48816086650000       0.743220447698480     
   2.22635867440000       0.660651645213071     
  0.776897003100000       0.444893524596052     
  0.283424721400000       0.121111677932856     
  9.862825729999999E-002  1.310074846435609E-002
 
           7 0
 s           8   1.000000    
   337.005012218500       3.700036866344431E-002
   53.3105310515000       6.294426759766547E-002
   12.2082534814000       0.114763527273611     
   3.41882690980000       0.173976722023679     
   1.10879012580000       0.217002616087808     
  0.478717798300000       0.125943264742935     
  0.212137087700000       8.827588371759917E-002
  6.905810860000000E-002  2.719014559789211E-003
 
           8 0
 s           8   1.000000    
   337.005012218500       3.419281788188766E-002
   53.3105310515000       6.043571182159443E-002
   12.2082534814000       0.107146584194422     
   3.41882690980000       0.165023046919365     
   1.10879012580000       0.201988901731652     
  0.478717798300000       0.123051512664391     
  0.212137087700000       8.625213135067150E-002
  6.905810860000000E-002  8.178919990326727E-003
 
           9 0
 s           8   1.000000    
   337.005012218500       3.419279307963995E-002
   53.3105310515000       6.043568932840273E-002
   12.2082534814000       0.107146516745504     
   3.41882690980000       0.165022967199055     
   1.10879012580000       0.201988768885844     
  0.478717798300000       0.123051486141626     
  0.212137087700000       8.625211278756924E-002
  6.905810860000000E-002  8.178967393448460E-003
 
          10 0
 s           8   1.000000    
   337.005012218500       3.450794757536763E-002
   53.3105310515000       6.072104257003685E-002
   12.2082534814000       0.108003347552629     
   3.41882690980000       0.166035085416290     
   1.10879012580000       0.203676504405177     
  0.478717798300000       0.123387148399154     
  0.212137087700000       8.648703848762850E-002
  6.905810860000000E-002  7.575479155230156E-003
 
          11 0
 s           8   1.000000    
   337.005012218500       3.461545678704174E-002
   53.3105310515000       6.081817382739869E-002
   12.2082534814000       0.108295537843351     
   3.41882690980000       0.166379954368308     
   1.10879012580000       0.204252108971916     
  0.478717798300000       0.123501030957940     
  0.212137087700000       8.656674249307184E-002
  6.905810860000000E-002  7.369080901395769E-003
 
          12 0
 s           8   1.000000    
   337.005012218500       3.484316776903496E-002
   53.3105310515000       6.102354534396635E-002
   12.2082534814000       0.108914242032661     
   3.41882690980000       0.167109736361924     
   1.10879012580000       0.205471044607333     
  0.478717798300000       0.123741187892213     
  0.212137087700000       8.673482168708480E-002
  6.905810860000000E-002  6.931021577547592E-003
 
[MO]
Sym=     1a
Ene=   -1.34179211533118     
Spin= Alpha
Occup=     2.00000000
           1 -0.339583797683133     
           2 -1.016688365954872E-002
           3  5.025304208145680E-002
           4  4.840842975873952E-007
           5 -0.319882048891838     
           6 -7.938874747759039E-003
           7 -3.216315512705634E-002
           8 -2.484298472930117E-007
           9 -0.282176005137739     
          10 -4.537962327928962E-002
          11  7.984689106768706E-004
          12 -2.142373180034679E-006
          13 -0.107591234203892     
          14 -3.726685495632284E-002
          15  7.667974069985075E-004
          16 -1.989200363854314E-006
          17 -0.214571845879780     
          18  5.067259149306193E-002
          19  2.290975382965071E-002
          20  1.877478227661570E-006
          21 -0.207783360798762     
          22  5.007523663608437E-002
          23 -2.374158253031730E-002
          24  1.613447026289843E-006
          25 -8.386995871583366E-002
          26 -2.670065189652593E-002
          27 -2.669821128254969E-002
          28 -2.864648499485796E-002
          29 -5.295401634336894E-002
          30 -4.994947195164364E-002
Sym=     2a
Ene=  -0.900832352523869     
Spin= Alpha
Occup=     2.00000000
           1 -0.473306696268106     
           2 -5.789573508882191E-002
           3 -4.863764032942820E-002
           4 -2.291067044939671E-006
           5  0.463704647607031     
           6  5.034013699583517E-003
           7  1.685863509002848E-002
           8 -3.855749411024410E-007
           9  0.111712588660725     
          10 -3.134207965774129E-002
          11 -0.156615558813964     
          12 -3.365336116212442E-006
          13  0.142766982693594     
          14  1.517264801672706E-002
          15 -9.793395644774954E-003
          16  8.572893827479038E-007
          17 -0.233598466558137     
          18  5.845313818391587E-002
          19 -7.351050622634500E-002
          20  1.637964074812644E-006
          21  0.124177024636372     
          22 -6.925080554247387E-002
          23 -7.974704336621873E-002
          24 -3.162739686831606E-006
          25 -0.133256622839813     
          26  3.461682011746992E-002
          27  3.462196470799597E-002
          28  4.445715939191429E-002
          29 -6.378967753382787E-002
          30  3.059764519130782E-002
Sym=     3a
Ene=  -0.875530274644013     
Spin= Alpha
Occup=     2.00000000
           1  0.136342309419842     
           2 -0.106101299181202     
           3  7.456740977863164E-003
           4 -4.878557406158450E-006
           5 -0.160846823435847     
           6 -8.246079774576073E-002
           7  4.272359309704002E-003
           8 -3.353621062913105E-006
           9  0.239397017934394     
          10 -0.130630968668726     
          11  6.395598061804871E-002
          12 -8.139893699426694E-006
          13  0.418834756774097     
          14  3.478833540182101E-002
          15  4.824678437250633E-003
          16  1.665204753197038E-006
          17 -0.198656921295578     
          18 -2.350156863125605E-002
          19  6.454411742391639E-002
          20 -2.987015515406259E-007
          21 -0.293151199752970     
          22  7.405120161818344E-003
          23 -1.561737377632563E-002
          24  2.892250023132915E-007
          25  4.553976469873118E-002
          26  0.118621492307211     
          27  0.118617316126343     
          28  0.109299521181785     
          29 -5.478866770865456E-002
          30 -7.891432316931433E-002
Sym=     4a
Ene=  -0.704665716828862     
Spin= Alpha
Occup=     2.00000000
           1 -0.226136090711211     
           2  0.148979053604777     
           3  8.297414456304750E-003
           4  5.007655371293825E-006
           5 -0.242998968571040     
           6  6.970002574131803E-002
           7 -4.371985225415375E-002
           8  2.196246466017858E-006
           9 -0.176808744556703     
          10 -0.137818099653056     
          11  2.519075865839201E-003
          12 -1.100135898197627E-005
          13  0.373522580248839     
          14 -6.718916918228374E-002
          15  4.720770579415778E-003
          16 -6.498341785758846E-006
          17  0.352226953626929     
          18  8.570529541744284E-002
          19 -7.043795096786164E-002
          20  2.278603749479387E-006
          21  0.264810514348690     
          22  0.108653518393154     
          23  9.190510551739287E-002
          24  4.388447203513506E-006
          25 -7.767842815387317E-002
          26  0.122513062606633     
          27  0.122511439799284     
          28  0.111799113679153     
          29  0.112403653160861     
          30  8.165548966449115E-002
Sym=     5a
Ene=  -0.561430817577429     
Spin= Alpha
Occup=     2.00000000
           1  0.156882878009555     
           2 -0.294257323589949     
           3  0.322392576699961     
           4 -5.707301493661946E-006
           5  8.042615616990356E-002
           6  0.206432818482126     
           7 -0.161507300693074     
           8  8.215504063128765E-006
           9 -0.143316766818868     
          10 -9.479202443981326E-002
          11  0.158563635095955     
          12 -2.234250769809478E-006
          13  1.255565004119086E-002
          14 -1.679131805708615E-002
          15  5.760531131263297E-002
          16  1.296682648548498E-006
          17 -0.207980744166066     
          18  0.103313182317498     
          19 -5.906260768480203E-002
          20  4.194287431402633E-006
          21  0.308498996587539     
          22  5.288860015424544E-002
          23 -0.187068092783909     
          24  5.175296414794247E-007
          25  0.242244982076763     
          26  2.726062623765166E-002
          27  2.723201430797074E-002
          28 -8.207790794377157E-003
          29 -6.953041326990901E-002
          30  0.161833299298072     
Sym=     6a
Ene=  -0.557216086283639     
Spin= Alpha
Occup=     2.00000000
           1  4.453692477253161E-002
           2  0.288995279677785     
           3  0.426572806147003     
           4  1.863574242576702E-005
           5  0.323189110795013     
           6 -9.692189955966125E-002
           7 -4.713882507844425E-002
           8 -4.030437221842864E-006
           9 -0.149785841120058     
          10 -9.307757995562420E-002
          11 -0.298787804178890     
          12 -5.776289198380825E-006
          13  3.780437789749490E-002
          14 -3.744761985876773E-002
          15 -6.238515282734281E-002
          16 -1.921001125449322E-006
          17  8.642937165379605E-002
          18  2.177087533742859E-003
          19  0.268290863569871     
          20  2.629738668394293E-006
          21 -0.148658188458329     
          22 -5.245183831036589E-002
          23 -9.698255915242508E-002
          24 -1.889277709569904E-006
          25  0.168113116387054     
          26  1.245303870517562E-002
          27  1.246646567335000E-002
          28  5.025764951149306E-002
          29  0.102604951081508     
          30 -5.205034799568697E-002
Sym=     7a
Ene=  -0.513623627921255     
Spin= Alpha
Occup=     2.00000000
           1  0.136440743369790     
           2  0.260723266989131     
           3 -0.132223423390711     
           4  1.076124700238215E-005
           5  1.957207331462070E-002
           6  0.257444365871112     
           7  1.456911258378486E-002
           8  1.111520800575433E-005
           9 -0.303362212868247     
          10  0.180304474272161     
          11  5.776063751690898E-002
          12  7.977880095239186E-006
          13  0.148283530720603     
          14 -0.271232633926675     
          15  3.527294104908780E-002
          16 -2.481706422674271E-005
          17 -0.173027984095956     
          18 -0.335917580262088     
          19  2.474283136135915E-002
          20 -8.577331260583796E-006
          21 -8.904633034868100E-003
          22 -0.217905068237059     
          23 -9.754937344295893E-002
          24 -6.733035898159845E-006
          25 -5.097305010320489E-002
          26  0.120866509624142     
          27  0.120852322359441     
          28  8.974249609877025E-002
          29 -0.191376617535192     
          30 -3.627105662224763E-002
Sym=     8a
Ene=  -0.481971622881372     
Spin= Alpha
Occup=     2.00000000
           1 -1.602220533011899E-006
           2 -2.651959435946776E-005
           3 -7.297353883799531E-006
           4  0.522811110771174     
           5  4.731667240611437E-007
           6 -1.867181019006815E-005
           7  4.168882146038505E-006
           8  0.240017308301983     
           9 -2.045763586113375E-006
          10 -1.390260301222943E-005
          11 -7.019210664076364E-006
          12  0.380365455974883     
          13  4.598683716422545E-006
          14 -2.535382097943509E-005
          15  4.287305535038315E-006
          16  0.182605989087777     
          17  3.720431098582472E-006
          18 -4.624814675324878E-006
          19 -1.023841163422136E-005
          20  0.254857363035611     
          21 -1.501983206558230E-006
          22 -3.642275681066327E-006
          23  9.402279739185992E-006
          24  0.175389674471614     
          25  1.464721012442933E-006
          26  9.452202650219481E-002
          27 -9.455587954819651E-002
          28  4.416125462639344E-005
          29 -3.839575773796428E-007
          30 -3.664237896528755E-006
Sym=     9a
Ene=  -0.448506795768645     
Spin= Alpha
Occup=     2.00000000
           1 -0.104821183657140     
           2 -0.187991702365623     
           3 -0.157476309848126     
           4 -1.939225391333355E-005
           5  0.204923316255017     
           6  0.222930463877923     
           7 -7.234357897423592E-002
           8  8.410226268354555E-006
           9 -7.961015880536219E-003
          10  0.101709291267466     
          11  0.223051887823783     
          12  8.354332414568561E-006
          13  2.081195516240905E-003
          14 -7.843833460499997E-002
          15  0.245725405853223     
          16  1.275976644827415E-005
          17  0.124730206041712     
          18  0.280480570698487     
          19  0.293844807980593     
          20  1.262490732714071E-006
          21 -0.182399944915289     
          22 -0.219499918009015     
          23 -0.140035325851532     
          24 -1.247197186010044E-005
          25 -0.102549612979967     
          26  0.100287061827785     
          27  0.100141286166477     
          28 -0.125553013514634     
          29  0.362197478355208     
          30 -0.132736142694838     
Sym=    10a
Ene=  -0.440508020403987     
Spin= Alpha
Occup=     2.00000000
           1  4.928825998324625E-002
           2  0.312629471352895     
           3 -0.197623649199085     
           4  3.323869138478071E-005
           5 -7.007950260195693E-002
           6  0.139749997105482     
           7 -0.258418280685850     
           8  1.517443785471978E-005
           9  0.136479919917963     
          10 -0.313256629893480     
          11  0.129979705758841     
          12 -8.721991054902969E-006
          13  2.546499362588698E-002
          14  0.343568472549692     
          15 -3.550704003813538E-002
          16  1.257126254297440E-005
          17  3.998437911755340E-003
          18 -0.208365473723062     
          19  0.258204349411217     
          20  1.433264359468858E-005
          21  3.940395876026956E-002
          22  4.501648330570161E-002
          23 -0.324992207700911     
          24  1.321919179601702E-005
          25 -0.218687129528336     
          26 -0.108023605109392     
          27 -0.107968704964043     
          28 -6.662663789010838E-002
          29 -1.248998959852023E-002
          30  0.177478228096987     
Sym=    11a
Ene=  -0.422877411591765     
Spin= Alpha
Occup=     2.00000000
           1 -1.444812854875489E-005
           2  6.581151515208696E-005
           3  1.839957351962575E-005
           4 -0.261233510049256     
           5 -4.801890922619807E-006
           6 -1.334173329295092E-005
           7 -7.419276657955073E-006
           8 -3.958725056082184E-002
           9  4.452183236522933E-006
          10 -5.239138235087802E-005
          11 -1.913796510522439E-005
          12  7.275066190411540E-002
          13  8.658802637110305E-006
          14  7.851772980441987E-007
          15  6.966476812996183E-005
          16  0.547277297168712     
          17  4.074881050794219E-006
          18 -4.179886166650289E-005
          19 -2.243963697223604E-005
          20 -0.253935296679544     
          21  1.346286748510633E-005
          22  9.053374671641549E-006
          23  2.008202969989675E-005
          24 -0.162325520675011     
          25 -1.574064204985155E-006
          26  0.341683276374482     
          27 -0.341823192924609     
          28  9.993541063321782E-005
          29 -4.242635791729060E-005
          30 -7.902694768347802E-007
Sym=    12a
Ene=  -0.413317584705469     
Spin= Alpha
Occup=     2.00000000
           1  0.175804482976940     
           2 -0.135448435680470     
           3 -0.223457908469680     
           4 -5.048572949717717E-005
           5 -1.358292818079475E-002
           6 -0.164753421227573     
           7 -2.519855597053993E-002
           8 -1.025164103432567E-007
           9  1.441332033662224E-002
          10  0.310036806245317     
          11  2.326557135487618E-002
          12  4.072016940432985E-005
          13 -3.922056011812951E-002
          14 -0.300351740170107     
          15 -0.324590220376015     
          16  4.898090928633944E-005
          17 -8.240435115466800E-002
          18  0.122542056472265     
          19  0.197968669624074     
          20 -3.900012287150721E-005
          21 -5.217932361491692E-002
          22  0.257896746529096     
          23 -0.253992900837569     
          24 -1.761619061827385E-005
          25 -8.324703692432302E-002
          26 -4.550934593006572E-002
          27 -4.541314193627194E-002
          28  0.310424488571014     
          29  0.141470796836010     
          30  0.254261080900203     
Sym=    13a
Ene=  -0.398105364476552     
Spin= Alpha
Occup=     2.00000000
           1 -3.651644602675298E-002
           2 -0.155973700914470     
           3  2.144917154293616E-002
           4 -4.223452469514683E-005
           5 -2.432233600640084E-002
           6  0.347042042245943     
           7 -7.139900771581835E-002
           8  3.483560777756741E-005
           9 -6.291920034399764E-002
          10 -0.146483034086334     
          11  0.160705935193951     
          12  1.636874371489682E-005
          13  4.519815418225878E-002
          14  0.109496744978354     
          15 -0.450942131187737     
          16  6.390133466480821E-005
          17  7.294652654534853E-002
          18  8.106417913368176E-002
          19 -6.455511144148300E-002
          20 -2.749417327182894E-005
          21  3.704150043123473E-003
          22 -0.328319677466172     
          23  0.113373809783268     
          24 -1.637259848915364E-005
          25  2.613819909641333E-002
          26 -0.200318420517210     
          27 -0.200099366806456     
          28  0.320461119973295     
          29  6.942398388574553E-002
          30 -0.263714530706051     
Sym=    14a
Ene=  -0.356471240092463     
Spin= Alpha
Occup=     2.00000000
           1  6.294779554968541E-007
           2  2.898113798497325E-005
           3  8.056859275064433E-006
           4 -0.587550881110069     
           5  2.379087998257905E-005
           6 -4.830173701365977E-005
           7 -2.532282952578836E-005
           8  0.641053277721131     
           9 -5.784239370641978E-006
          10 -9.011558973969986E-006
          11  1.307553099921551E-006
          12  0.132021803465598     
          13 -3.155774494811545E-006
          14 -3.101398549991273E-007
          15  2.990875698318643E-005
          16 -4.938344871467491E-002
          17  4.448456161730121E-006
          18 -3.156556812436723E-006
          19 -9.129802732325778E-006
          20 -0.110626881327245     
          21 -3.731223819335873E-006
          22  1.539124058348161E-006
          23  7.089167005295561E-006
          24  0.385655640223869     
          25 -4.036175128637780E-007
          26 -5.103229456967735E-002
          27  5.107100661207662E-002
          28 -3.402816605527585E-005
          29 -1.083960619540992E-005
          30 -1.275527039939072E-007
Sym=    15a
Ene=  -0.342033917661760     
Spin= Alpha
Occup=     2.00000000
           1  0.174266436056582     
           2 -7.167710652435211E-002
           3 -0.156179155968504     
           4  1.757127472523371E-005
           5  0.450494384819746     
           6 -0.272956794049261     
           7 -0.730386356037078     
           8 -4.250757196362827E-005
           9 -0.199184005250858     
          10 -7.156439515587112E-002
          11  0.165562850678138     
          12 -1.791685160605124E-005
          13 -5.669504188889664E-002
          14 -8.881463953230842E-002
          15  2.633709805355507E-002
          16 -2.024789184884888E-005
          17  0.160775053005480     
          18 -3.295932151708686E-002
          19 -0.211385055032831     
          20  1.104994310668550E-005
          21 -0.150900111042970     
          22  0.140686587074426     
          23  0.194784315677291     
          24 -3.067329396266427E-006
          25 -7.596245247101496E-002
          26  2.435442211178503E-002
          27  2.435055402050452E-002
          28  2.639851888939961E-002
          29 -0.113830431406293     
          30 -0.137561362761954     
Sym=    16a
Ene=  -0.310675675796284     
Spin= Alpha
Occup=     2.00000000
           1 -9.032205825698863E-007
           2 -1.815442593822012E-006
           3  2.973182658681849E-006
           4  0.199318023720365     
           5  7.954021014803315E-006
           6 -1.195392344728300E-005
           7 -9.935879001612922E-006
           8  0.227075905525083     
           9 -8.245666252964800E-007
          10 -3.551585440139139E-005
          11 -2.301897976596723E-006
          12  0.505101629894972     
          13 -1.104758150093685E-006
          14  1.450772953540181E-005
          15  1.727021090227926E-005
          16 -0.163522286452324     
          17  2.122585598441776E-006
          18  1.360425638237649E-005
          19 -1.489422102317780E-006
          20 -0.567868200765640     
          21 -4.276215906964752E-007
          22  1.634630744504835E-005
          23  8.757188803524734E-006
          24 -0.472030286806440     
          25  1.466941442000593E-007
          26 -0.180560684787559     
          27  0.180662358672444     
          28 -9.726208418696063E-005
          29 -4.182815736688893E-006
          30 -2.244044539742012E-006
Sym=    17a
Ene=   7.758317069275576E-002
Spin= Alpha
Occup=     0.00000000
           1 -8.222462085081035E-006
           2  2.576289736029323E-005
           3  1.711297388110726E-005
           4 -0.601557838281830     
           5  4.148889703429418E-006
           6  1.796071651068310E-005
           7  3.669125180723527E-007
           8 -0.437710539111212     
           9  1.681965421610148E-005
          10 -4.567243045801374E-005
          11  1.464826197727878E-006
          12  0.739163861129748     
          13 -5.355884684045684E-006
          14 -2.434482309311178E-005
          15  1.353533722416092E-005
          16  8.594152732435657E-002
          17  1.213849624337240E-005
          18 -1.714770269064556E-005
          19  7.683627151299673E-007
          20  0.548435894185797     
          21  1.607305815722052E-006
          22  6.804237396601701E-006
          23  1.526405757473104E-006
          24 -0.181330391064528     
          25 -2.736032056186387E-006
          26 -0.221938982811748     
          27  0.222048074400530     
          28 -1.076674981406210E-004
          29 -1.242956570216027E-005
          30 -3.753931990337651E-006
Sym=    18a
Ene=   0.127742581176686     
Spin= Alpha
Occup=     0.00000000
           1 -1.465801370283968E-005
           2  5.480407138625676E-006
           3  1.461928741949312E-006
           4 -0.105748136985717     
           5  1.042516865371451E-005
           6 -2.528999516285969E-005
           7  4.979129080150228E-006
           8  0.634817579685326     
           9 -6.781405093210323E-006
          10  2.344183970785123E-005
          11  1.272217236299668E-005
          12 -0.316170842941966     
          13  4.052987354385830E-006
          14  1.341962782821063E-005
          15  1.598590395878627E-005
          16 -4.471750973305492E-002
          17  8.513450682646121E-006
          18 -1.919384450915395E-005
          19 -8.492498575557592E-010
          20  0.604150902620826     
          21 -1.351807871963393E-005
          22  2.741876356455080E-005
          23  1.021243029633454E-005
          24 -0.820439886847321     
          25  6.044472995686606E-006
          26  9.858924898465617E-002
          27 -9.865763060070540E-002
          28  6.806994623777864E-005
          29 -6.495561522882489E-006
          30  1.176620190114191E-005
Sym=    19a
Ene=   0.253450510569948     
Spin= Alpha
Occup=     0.00000000
           1  -1.16931741293383     
           2  4.191489819311840E-002
           3 -0.164019539363192     
           4  1.333506101531191E-005
           5  6.039386546950656E-002
           6  6.544867623744770E-002
           7 -8.542781447376642E-002
           8 -9.826620404647668E-006
           9  0.444579613392813     
          10  0.131452018829550     
          11  0.342386717970315     
          12  8.498031133370552E-006
          13 -0.117887708145416     
          14 -0.126788239770785     
          15  0.162976788972017     
          16 -1.817468929863204E-005
          17  0.673993211677986     
          18 -0.220189604572758     
          19  0.164380724351611     
          20 -2.108358245260509E-005
          21 -0.422984195956435     
          22 -5.282399792671544E-002
          23 -2.508523306684717E-003
          24  1.334481608698706E-005
          25  0.812914100585906     