[Molden Format]
[Title]
[Atoms] AU
O      1     8  0.17392099672358E+01  0.10316718164887E+00 -0.48967278913580E-01
H      2     1  0.10964579385165E+01  0.18059875977580E+01 -0.39240013311109E+00
H      3     1  0.10966815462502E+01 -0.11142246731910E+01 -0.12882114586389E+01
H      4     1  0.35906552339519E+01  0.87572781697855E-01  0.23673311861068E-02
[GTO]
           1 0
 s           6   1.000000    
   3.48359494310000       -1.34244749223191     
   2.85986576440000        1.14272266389112     
  0.740681029000000       0.304279643839265     
  0.344926919200000       8.340238496984988E-002
  0.261978532900000       4.047850411605090E-002
  9.461635039999999E-002  7.327682727237195E-003
 p           6   1.000000    
   37.6414713255000        1.57710278891974     
   9.71308856170000        1.90400365636412     
   3.13717714760000        1.41844833704025     
   1.12138051620000       0.674789258042907     
  0.398077926500000       0.188978222665006     
  0.123047771000000       9.501878287200180E-003
 
           2 0
 s           8   1.000000    
   337.005012218500       4.012538494561647E-002
   53.3105310515000       6.564138391068827E-002
   12.2082534814000       0.123195999261221     
   3.41882690980000       0.183764711940804     
   1.10879012580000       0.233653113314098     
  0.478717798300000       0.128882506308814     
  0.212137087700000       9.033243738638713E-002
  6.905810860000000E-002 -3.595897102671425E-003
 
           3 0
 s           8   1.000000    
   337.005012218500       4.012563964691365E-002
   53.3105310515000       6.564159932847702E-002
   12.2082534814000       0.123196684420167     
   3.41882690980000       0.183765501444353     
   1.10879012580000       0.233654467573095     
  0.478717798300000       0.128882732913282     
  0.212137087700000       9.033259591693141E-002
  6.905810860000000E-002 -3.596422807692757E-003
 
           4 0
 s           8   1.000000    
   337.005012218500       4.012513842387908E-002
   53.3105310515000       6.564117541018144E-002
   12.2082534814000       0.123195336105348     
   3.41882690980000       0.183763947790288     
   1.10879012580000       0.233651802545756     
  0.478717798300000       0.128882286979495     
  0.212137087700000       9.033228394547084E-002
  6.905810860000000E-002 -3.595388282096823E-003
 
[MO]
Sym=     1a
Ene=   -1.69004299690453     
Spin= Alpha
Occup=     2.00000000
           1  0.842940669852302     
           2  5.080140403366327E-003
           3  4.215830216347161E-003
           4 -1.378374779862274E-002
           5  0.108707953921957     
           6  0.108683863638022     
           7  0.108711146488000     
Sym=     2a
Ene=  -0.885715556221557     
Spin= Alpha
Occup=     2.00000000
           1 -2.082292666941884E-004
           2 -0.562975741232107     
           3 -0.343504578329427     
           4 -0.314234579954434     
           5 -3.112326076832861E-002
           6  0.316330244832097     
           7 -0.284888759785725     
Sym=     3a
Ene=  -0.885666737835193     
Spin= Alpha
Occup=     2.00000000
           1  2.823618068848133E-005
           2 -0.396579689525391     
           3  0.612180345834013     
           4  4.133631867966467E-002
           5  0.347046416373466     
           6 -0.146483320580858     
           7 -0.200608667090117     
Sym=     4a
Ene=  -0.796018762013745     
Spin= Alpha
Occup=     2.00000000
           1  0.225714659010186     
           2 -0.314465016924668     
           3 -0.261020076569751     
           4  0.848767878733315     
           5 -0.109108815296784     
           6 -0.109200226973178     
           7 -0.109067872449994     
Sym=     5a
Ene=  -9.958476104594265E-002
Spin= Alpha
Occup=     0.00000000
           1  -1.05926386115534     
           2 -0.147624865505673     
           3 -0.122727392557471     
           4  0.391429203734004     
           5  0.695545569855754     
           6  0.690881064365268     
           7  0.697221053628455     
Sym=     6a
Ene=  -3.706915173864787E-002
Spin= Alpha
Occup=     0.00000000
           1 -2.944629404065509E-004
           2 -0.578389532670599     
           3  0.735636704079203     
           4  1.204296738669691E-002
           5 -0.971115184567801     
           6  0.323145687629573     
           7  0.648558770753779     
Sym=     7a
Ene=  -3.681226696068826E-002
Spin= Alpha
Occup=     0.00000000
           1  3.961158385843668E-003
           2 -0.665786685994531     
           3 -0.516809233843936     
           4 -0.406862001225510     
           5  0.185271706141686     
           6 -0.937723503342731     
           7  0.744597231862433     
