31
 energy: -2391.594253637900 gnorm: 0.000828097206 xtb: 6.7.1 (edcfbbe)
ZN           0.18612610162201       -0.85352474137068        0.04686901197972
H           -3.06975688606018       -2.05164032785626       -1.81779733989031
C           -2.34015505421628       -1.26054254676207       -1.66075408144757
H           -2.11853035919998       -0.75893906491002       -2.60233392139430
H           -2.71762574576957       -0.54339377601033       -0.93277193035347
O           -1.13283970365926       -1.83467110257221       -1.09724679943849
H           -0.78448782681387       -2.51101696665372       -1.68546441026989
H           -1.98668282686916       -1.90380113507712        2.73679880187926
C           -1.22956682371000       -2.50176003360188        2.23072801828033
H           -0.87996706487068       -3.30070967258392        2.88034447225462
H           -1.63208296570314       -2.91718631730043        1.30903009885816
O           -0.10245915823642       -1.66541835565945        1.85369528320577
H            0.32325772734358       -1.31088205300277        2.63904082246075
H            3.60666449834486       -1.45878626025923       -1.78530688486300
C            3.05759381463690       -0.86416588235370       -1.05916417942687
H            3.70922061830100       -0.58066673950697       -0.23290436941091
H            2.64901620556558        0.02471345684109       -1.53762499103451
O            1.92862354822229       -1.63286165162232       -0.57144428005167
H            2.23582067944324       -2.45201312030672       -0.17299791302044
N            0.10733624854567        3.24746324030107        0.14578318160738
N            0.11794104143755        1.09335935798564       -0.15675315325991
C            0.14463360053777        2.06130113845516        0.75345877090357
C            0.21690038797723        1.88337389432945        2.21665100694910
C            0.05526105707896        3.04271501652348       -1.20494137098255
C            0.06325456320986        1.70405595471821       -1.38327728813792
H            0.11426193518105        4.14591496442500        0.60335546076896
H            1.18035472041720        1.46192588132993        2.50652152870031
H           -0.57692601290198        1.22122830062321        2.56165005545734
H            0.10409519597589        2.84406433345810        2.71171477407249
H            0.01562799758530        3.84813886809157       -1.91460455993128
H            0.03040884658630        1.15052681032801       -2.30351385446406
