[Molden Format]
[Title]
[Atoms] AU
Zn     1    30  0.44676554156477E+00  0.10253713695377E+00 -0.55823671718630E+00
H      2     1  0.50415457536649E+01 -0.67470737078540E+00  0.46801737737658E+01
C      3     6  0.47603326621572E+01 -0.19358889350337E+01  0.30607256541331E+01
H      4     1  0.64801487211765E+01 -0.30234418516704E+01  0.26775936495295E+01
H      5     1  0.31832664477642E+01 -0.32191280991383E+01  0.34344316865992E+01
O      6     8  0.40776166326243E+01 -0.47386090524724E+00  0.81420019707813E+00
H      7     1  0.54182749130787E+01  0.72543252965647E+00  0.44894554836461E+00
H      8     1  0.25123283433366E+01  0.22646569810908E+01 -0.75300973378226E+01
C      9     6  0.32078192796128E+01  0.16132534466579E+01 -0.56922112745095E+01
H     10     1  0.48705151202423E+01  0.40033213939059E+00 -0.59316330946357E+01
H     11     1  0.36691732790567E+01  0.32520411921522E+01 -0.45170889090098E+01
O     12     8  0.11985607314454E+01  0.23489783500241E+00 -0.43838023019176E+01
H     13     1  0.48409571790326E+00 -0.10284645864224E+01 -0.55062365178791E+01
N     14     7 -0.17976901175102E+01  0.70011434744335E+01  0.22028675710320E+01
N     15     7 -0.68769704488755E+00  0.35474364504510E+01  0.23696854005096E+00
C     16     6 -0.87487895848059E+00  0.46403174684151E+01  0.25269657262216E+01
C     17     6 -0.16035302017248E+00  0.35236504127175E+01  0.50004743922968E+01
C     18     6 -0.22190062089356E+01  0.74540386068100E+01 -0.32978706190026E+00
C     19     6 -0.15250537930745E+01  0.52877491956585E+01 -0.15499240799923E+01
H     20     1 -0.21324126712659E+01  0.82524309058274E+01  0.36224830631204E+01
H     21     1 -0.25317401756282E+00  0.14532574146223E+01  0.49268410490038E+01
H     22     1 -0.14410979538396E+01  0.41548376585046E+01  0.65044135776815E+01
H     23     1  0.17681174553350E+01  0.40723439191658E+01  0.55519750300121E+01
H     24     1 -0.29732229503922E+01  0.92273192281879E+01 -0.10208403546331E+01
H     25     1 -0.15991515743241E+01  0.48502868318365E+01 -0.35479641564338E+01
N     26     7 -0.29549865087694E+01 -0.68106783131102E+01  0.49179257186234E+00
N     27     7 -0.15327839440055E+01 -0.29522392629190E+01  0.15098918222546E+00
C     28     6 -0.97189085789172E+00 -0.53976021044281E+01 -0.28506138620638E+00
C     29     6  0.13786815137999E+01 -0.64328924945116E+01 -0.14167738355275E+01
C     30     6 -0.48332312232933E+01 -0.52718461120997E+01  0.14418427704414E+01
C     31     6 -0.39358719710468E+01 -0.28624581543459E+01  0.12237832821851E+01
H     32     1 -0.30462197016908E+01 -0.87273524197867E+01  0.38133521533743E+00
H     33     1  0.26831937013241E+01 -0.49039301811710E+01 -0.19180638300672E+01
H     34     1  0.96934020023612E+00 -0.75263486316836E+01 -0.31350705359533E+01
H     35     1  0.23572856043754E+01 -0.77041196153579E+01 -0.96420112819963E-01
H     36     1 -0.66008318385699E+01 -0.60099781862270E+01  0.21642950510329E+01
H     37     1 -0.48386439276532E+01 -0.10968788844749E+01  0.17343375072148E+01
[GTO]
           1 0
 s           5   1.000000    
   1.82046632240000       0.239448201245839     
   1.13274582070000      -0.435482500703040     
  0.315046004900000       8.875123137956711E-003
  0.148617277200000       0.165802285718172     
  5.129314220000000E-002  1.385784892175561E-002
 p           3   1.000000    
   1.22375302100000      -0.198091913092789     
  0.183640111800000       0.157940618440600     
  4.740596480000000E-002  5.440107916134887E-003
 
           2 0
 s           8   1.000000    
   337.005012218500       3.553721206746047E-002
   53.3105310515000       6.164646300326265E-002
   12.2082534814000       0.110798539561122     
   3.41882690980000       0.169328361519662     
   1.10879012580000       0.209184314441766     
  0.478717798300000       0.124464238034948     
  0.212137087700000       8.724085095202955E-002
  6.905810860000000E-002  5.588262095645440E-003
 
           3 0
 s           6   1.000000    
   2.20862762910000       -1.32722352775899     
   1.91795894900000        1.01724040367933     
  0.497153036800000       0.266228485582009     
  0.192182467300000       0.133647524867470     
  0.150531183200000      -6.555713151750608E-002
  7.818867730000000E-002  2.221740202993090E-002
 p           6   1.000000    
   24.5973356357000       0.515471036588403     
   6.48816086650000       0.738980772804190     
   2.22635867440000       0.656714478202813     
  0.776897003100000       0.442459885751252     
  0.283424721400000       0.120451369900504     
  9.862825729999999E-002  1.373272425864825E-002
 
           4 0
 s           8   1.000000    
   337.005012218500       3.567527330262957E-002
   53.3105310515000       6.176982344832889E-002
   12.2082534814000       0.111173103632705     
   3.41882690980000       0.169768662528568     
   1.10879012580000       0.209922614907798     
  0.478717798300000       0.124606446571813     
  0.212137087700000       8.734037362386934E-002
  6.905810860000000E-002  5.319777091623464E-003
 
           5 0
 s           8   1.000000    
   337.005012218500       3.540619220528469E-002
   53.3105310515000       6.152922365272879E-002
   12.2082534814000       0.110442996882828     
   3.41882690980000       0.168910197268526     
   1.10879012580000       0.208483559436292     
  0.478717798300000       0.124328781239236     
  0.212137087700000       8.714605261523076E-002
  6.905810860000000E-002  5.842627806848060E-003
 
           6 0
 s           6   1.000000    
   3.48359494310000       -1.32315695740902     
   2.85986576440000        1.12444784460386     
  0.740681029000000       0.297883327796206     
  0.344926919200000       8.208225129349021E-002
  0.261978532900000       3.980877565642214E-002
  9.461635039999999E-002  1.065777105116128E-002
 p           6   1.000000    
   37.6414713255000        1.51056807931477     
   9.71308856170000        1.83282185897547     
   3.13717714760000        1.34351181321530     
   1.12138051620000       0.647876742227375     
  0.398077926500000       0.185240791698436     
  0.123047771000000       1.589807243897106E-002
 
           7 0
 s           8   1.000000    
   337.005012218500       3.778940903657669E-002
   53.3105310515000       6.363515298852239E-002
   12.2082534814000       0.116897413016606     
   3.41882690980000       0.176466625412458     
   1.10879012580000       0.221213058200913     
  0.478717798300000       0.126714455066754     
  0.212137087700000       8.881552611510291E-002
  6.905810860000000E-002  1.149255777964212E-003
 
           8 0
 s           8   1.000000    
   337.005012218500       3.571015084092623E-002
   53.3105310515000       6.180095794403111E-002
   12.2082534814000       0.111267713302132     
   3.41882690980000       0.169879838157333     
   1.10879012580000       0.210109108345483     
  0.478717798300000       0.124642285774997     
  0.212137087700000       8.736545505960332E-002
  6.905810860000000E-002  5.251878268561372E-003
 
           9 0
 s           6   1.000000    
   2.20862762910000       -1.32763194038997     
   1.91795894900000        1.01755487747889     
  0.497153036800000       0.266310825942478     
  0.192182467300000       0.133688823598756     
  0.150531183200000      -6.563543555729327E-002
  7.818867730000000E-002  2.222427670736432E-002
 p           6   1.000000    
   24.5973356357000       0.515583865059030     
   6.48816086650000       0.739083463063659     
   2.22635867440000       0.656809823938718     
  0.776897003100000       0.442518842310997     
  0.283424721400000       0.120467366548744     
  9.862825729999999E-002  1.371748999484917E-002
 
          10 0
 s           8   1.000000    
   337.005012218500       3.563663524267219E-002
   53.3105310515000       6.173531820631122E-002
   12.2082534814000       0.111068286437761     
   3.41882690980000       0.169645474008835     
   1.10879012580000       0.209716004772089     
  0.478717798300000       0.124566702593287     
  0.212137087700000       8.731255943674510E-002
  6.905810860000000E-002  5.394962326580097E-003
 
          11 0
 s           8   1.000000    
   337.005012218500       3.550949496168616E-002
   53.3105310515000       6.162167497115599E-002
   12.2082534814000       0.110723331555156     
   3.41882690980000       0.169239925228601     
   1.10879012580000       0.209036079353445     
  0.478717798300000       0.124435622924565     
  0.212137087700000       8.722082496253561E-002
  6.905810860000000E-002  5.642107415937158E-003
 
          12 0
 s           6   1.000000    
   3.48359494310000       -1.32326209630553     
   2.85986576440000        1.12454728327500     
  0.740681029000000       0.297918010218211     
  0.344926919200000       8.208943561739401E-002
  0.261978532900000       3.981241806427972E-002
  9.461635039999999E-002  1.063992549699486E-002
 p           6   1.000000    
   37.6414713255000        1.51093726435079     
   9.71308856170000        1.83321887917860     
   3.13717714760000        1.34392423443396     
   1.12138051620000       0.648026421920601     
  0.398077926500000       0.185262479081345     
  0.123047771000000       1.586410501111346E-002
 
          13 0
 s           8   1.000000    
   337.005012218500       3.781038842910692E-002
   53.3105310515000       6.365343421291421E-002
   12.2082534814000       0.116954107290109     
   3.41882690980000       0.176532662646450     
   1.10879012580000       0.221324950903490     
  0.478717798300000       0.126734700108873     
  0.212137087700000       8.882969221039727E-002
  6.905810860000000E-002  1.107297430590070E-003
 
          14 0
 s           6   1.000000    
   2.69507309610000       -1.15512330451307     
   2.24947021280000       0.953790507965067     
  0.611851695800000       0.240082673599668     
  0.303726665600000       9.172256428679358E-002
  0.171628270400000       3.192457581232072E-002
  7.154913430000000E-002  7.204171082801003E-003
 p           6   1.000000    
   27.5476401720000       0.976098804297181     
   7.12656627820000        1.23079198623129     
   2.35805520400000       0.942221034171501     
  0.845047262300000       0.490075402896662     
  0.301063057900000       0.126631227679119     
  9.457452580000000E-002  8.814338886292515E-003
 
          15 0
 s           6   1.000000    
   2.69507309610000       -1.14397852982461     
   2.24947021280000       0.944453816587157     
  0.611851695800000       0.237724587717927     
  0.303726665600000       9.082397953065624E-002
  0.171628270400000       3.160445127759350E-002
  7.154913430000000E-002  8.556766415761051E-003
 p           6   1.000000    
   27.5476401720000       0.955909671559063     
   7.12656627820000        1.21482365603956     
   2.35805520400000       0.923733733763275     
  0.845047262300000       0.483007389280625     
  0.301063057900000       0.125233975599722     
  9.457452580000000E-002  1.064454557332106E-002
 
          16 0
 s           6   1.000000    
   2.20862762910000       -1.42521999488866     
   1.91795894900000        1.09269915149122     
  0.497153036800000       0.285986315912318     
  0.192182467300000       0.143557226051094     
  0.150531183200000      -8.444246523829309E-002
  7.818867730000000E-002  2.386700791677819E-002
 p           6   1.000000    
   24.5973356357000       0.541211559336505     
   6.48816086650000       0.762198305937260     
   2.22635867440000       0.678294366880010     
  0.776897003100000       0.455775375753566     
  0.283424721400000       0.124063943237972     
  9.862825729999999E-002  1.019232349628675E-002
 
          17 0
 s           6   1.000000    
   2.20862762910000       -1.30581524791249     
   1.91795894900000        1.00075634972201     
  0.497153036800000       0.261912380356245     
  0.192182467300000       0.131482730993121     
  0.150531183200000      -6.145721203744667E-002
  7.818867730000000E-002  2.185704642502508E-002
 p           6   1.000000    
   24.5973356357000       0.509488382666945     
   6.48816086650000       0.733524515915497     
   2.22635867440000       0.651649677133272     
  0.776897003100000       0.439326584476905     
  0.283424721400000       0.119601196607851     
  9.862825729999999E-002  1.453705968981962E-002
 
          18 0
 s           6   1.000000    
   2.20862762910000       -1.35894202561995     
   1.91795894900000        1.04166358999295     
  0.497153036800000       0.272623345729870     
  0.192182467300000       0.136854932503625     
  0.150531183200000      -7.164839264271894E-002
  7.818867730000000E-002  2.275131571498887E-002
 p           6   1.000000    
   24.5973356357000       0.524091413862098     
   6.48816086650000       0.746803700223487     
   2.22635867440000       0.663980393504595     
  0.776897003100000       0.446949645040246     
  0.283424721400000       0.121669539803567     
  9.862825729999999E-002  1.256172682850962E-002
 
          19 0
 s           6   1.000000    
   2.20862762910000       -1.35587449550866     
   1.91795894900000        1.03930157529773     
  0.497153036800000       0.272004885579984     
  0.192182467300000       0.136544738028263     
  0.150531183200000      -7.105841660647867E-002
  7.818867730000000E-002  2.269967977027726E-002
 p           6   1.000000    
   24.5973356357000       0.523270164175418     
   6.48816086650000       0.746060437764770     
   2.22635867440000       0.663289832860087     
  0.776897003100000       0.446523205805560     
  0.283424721400000       0.121553840501328     
  9.862825729999999E-002  1.267390833977799E-002
 
          20 0
 s           8   1.000000    
   337.005012218500       3.781764298713976E-002
   53.3105310515000       6.365975468294865E-002
   12.2082534814000       0.116973711338709     
   3.41882690980000       0.176555495940959     
   1.10879012580000       0.221363642092540     
  0.478717798300000       0.126741697569046     
  0.212137087700000       8.883458854901684E-002
  6.905810860000000E-002  1.092785776276746E-003
 
          21 0
 s           8   1.000000    
   337.005012218500       3.518150887638687E-002
   53.3105310515000       6.132778788831276E-002
   12.2082534814000       0.109833098929556     
   3.41882690980000       0.168192375842863     
   1.10879012580000       0.207281602605491     
  0.478717798300000       0.124095359432679     
  0.212137087700000       8.698269251658158E-002
  6.905810860000000E-002  6.277874026192985E-003
 
          22 0
 s           8   1.000000    
   337.005012218500       3.542255902636925E-002
   53.3105310515000       6.154387808067871E-002
   12.2082534814000       0.110487415140195     
   3.41882690980000       0.168962450722782     
   1.10879012580000       0.208571102583825     
  0.478717798300000       0.124345728913226     
  0.212137087700000       8.715791334813894E-002
  6.905810860000000E-002  5.810875404437491E-003
 
          23 0
 s           8   1.000000    
   337.005012218500       3.529075825165601E-002
   53.3105310515000       6.142579391431596E-002
   12.2082534814000       0.110129683058895     
   3.41882690980000       0.168541520553567     
   1.10879012580000       0.207866077368744     
  0.478717798300000       0.124209035536179     
  0.212137087700000       8.706224893663762E-002
  6.905810860000000E-002  6.066392282411419E-003
 
          24 0
 s           8   1.000000    
   337.005012218500       3.596412110185410E-002
   53.3105310515000       6.202731440650739E-002
   12.2082534814000       0.111956467100124     
   3.41882690980000       0.170688723430490     
   1.10879012580000       0.211466881770515     
  0.478717798300000       0.124902206994485     
  0.212137087700000       8.754735471640269E-002
  6.905810860000000E-002  4.756560451021998E-003
 
          25 0
 s           8   1.000000    
   337.005012218500       3.581373761625844E-002
   53.3105310515000       6.189335799291261E-002
   12.2082534814000       0.111548671733347     
   3.41882690980000       0.170209900510405     
   1.10879012580000       0.210662951731323     
  0.478717798300000       0.124748523447893     
  0.212137087700000       8.743980330650918E-002
  6.905810860000000E-002  5.050043307425340E-003
 
          26 0
 s           6   1.000000    
   2.69507309610000       -1.15510696581072     
   2.24947021280000       0.953776818841527     
  0.611851695800000       0.240079216191865     
  0.303726665600000       9.172124680794595E-002
  0.171628270400000       3.192410639315112E-002
  7.154913430000000E-002  7.206166173657571E-003
 p           6   1.000000    
   27.5476401720000       0.976069379743735     
   7.12656627820000        1.23076889219620     
   2.35805520400000       0.942194108823563     
  0.845047262300000       0.490065159516736     
  0.301063057900000       0.126629214302797     
  9.457452580000000E-002  8.817044262377526E-003
 
          27 0
 s           6   1.000000    
   2.69507309610000       -1.14385964016569     
   2.24947021280000       0.944354223452582     
  0.611851695800000       0.237699434841317     
  0.303726665600000       9.081439450061315E-002
  0.171628270400000       3.160103702150356E-002
  7.154913430000000E-002  8.571107259749043E-003
 p           6   1.000000    
   27.5476401720000       0.955693087302967     
   7.12656627820000        1.21465105207291     
   2.35805520400000       0.923535269259432     
  0.845047262300000       0.482931145071297     
  0.301063057900000       0.125218818866186     
  9.457452580000000E-002  1.066390398455759E-002
 
          28 0
 s           6   1.000000    
   2.20862762910000       -1.42454726042586     
   1.91795894900000        1.09218111913801     
  0.497153036800000       0.285850675869288     
  0.192182467300000       0.143489195097761     
  0.150531183200000      -8.431214810617110E-002
  7.818867730000000E-002  2.385568312395676E-002
 p           6   1.000000    
   24.5973356357000       0.541043605814948     
   6.48816086650000       0.762048226478830     
   2.22635867440000       0.678154717948011     
  0.776897003100000       0.455689399740076     
  0.283424721400000       0.124040619532039     
  9.862825729999999E-002  1.021586018668314E-002
 
          29 0
 s           6   1.000000    
   2.20862762910000       -1.30617417682711     
   1.91795894900000        1.00103271772935     
  0.497153036800000       0.261984743175076     
  0.192182467300000       0.131519025471587     
  0.150531183200000      -6.152587597724619E-002
  7.818867730000000E-002  2.186308805941806E-002
 p           6   1.000000    
   24.5973356357000       0.509589803288586     
   6.48816086650000       0.733617194330069     
   2.22635867440000       0.651735686645857     
  0.776897003100000       0.439379818048923     
  0.283424721400000       0.119615640989763     
  9.862825729999999E-002  1.452348029326754E-002
 
          30 0
 s           6   1.000000    
   2.20862762910000       -1.35887529063050     
   1.91795894900000        1.04161220364148     
  0.497153036800000       0.272609890939028     
  0.192182467300000       0.136848184128636     
  0.150531183200000      -7.163555552384965E-002
  7.818867730000000E-002  2.275019235901492E-002
 p           6   1.000000    
   24.5973356357000       0.524073575302041     
   6.48816086650000       0.746787560199403     
   2.22635867440000       0.663965397406529     
  0.776897003100000       0.446940385175512     
  0.283424721400000       0.121667027471422     
  9.862825729999999E-002  1.256416495714535E-002
 
          31 0
 s           6   1.000000    
   2.20862762910000       -1.35486784308847     
   1.91795894900000        1.03852644854828     
  0.497153036800000       0.271801929627177     
  0.192182467300000       0.136442943545210     
  0.150531183200000      -7.086484920979705E-002
  7.818867730000000E-002  2.268273474808402E-002
 p           6   1.000000    
   24.5973356357000       0.523000086138209     
   6.48816086650000       0.745815913192336     
   2.22635867440000       0.663062656822150     
  0.776897003100000       0.446382905985688     
  0.283424721400000       0.121515774935751     
  9.862825729999999E-002  1.271077170175945E-002
 
          32 0
 s           8   1.000000    
   337.005012218500       3.781455034275478E-002
   53.3105310515000       6.365706031132448E-002
   12.2082534814000       0.116965354094292     
   3.41882690980000       0.176545762151485     
   1.10879012580000       0.221347147941736     
  0.478717798300000       0.126738714725275     
  0.212137087700000       8.883250136159614E-002
  6.905810860000000E-002  1.098972316181835E-003
 
          33 0
 s           8   1.000000    
   337.005012218500       3.520955294692932E-002
   53.3105310515000       6.135295671334157E-002
   12.2082534814000       0.109909236656771     
   3.41882690980000       0.168282020921799     
   1.10879012580000       0.207431642950169     
  0.478717798300000       0.124124571862281     
  0.212137087700000       8.700313693576166E-002
  6.905810860000000E-002  6.223614364615535E-003
 
          34 0
 s           8   1.000000    
   337.005012218500       3.536860140753913E-002
   53.3105310515000       6.149555606280464E-002
   12.2082534814000       0.110340973734264     
   3.41882690980000       0.168790164898390     
   1.10879012580000       0.208282486847699     
  0.478717798300000       0.124289827663414     
  0.212137087700000       8.711879113325875E-002
  6.905810860000000E-002  5.915531327111401E-003
 
          35 0
 s           8   1.000000    
   337.005012218500       3.531842986389658E-002
   53.3105310515000       6.145059956318337E-002
   12.2082534814000       0.110204795678110     
   3.41882690980000       0.168629920898206     
   1.10879012580000       0.208014106489635     
  0.478717798300000       0.124237775036843     
  0.212137087700000       8.708236224457319E-002
  6.905810860000000E-002  6.012781026966536E-003
 
          36 0
 s           8   1.000000    
   337.005012218500       3.596478265844770E-002
   53.3105310515000       6.202790320862468E-002
   12.2082534814000       0.111958260809580     
   3.41882690980000       0.170690828917888     
   1.10879012580000       0.211470418050173     
  0.478717798300000       0.124902881629370     
  0.212137087700000       8.754782683972931E-002
  6.905810860000000E-002  4.755268158099788E-003
 
          37 0
 s           8   1.000000    
   337.005012218500       3.579928857844338E-002
   53.3105310515000       6.188047564139335E-002
   12.2082534814000       0.111509484627357     
   3.41882690980000       0.170163872773348     
   1.10879012580000       0.210585701644409     
  0.478717798300000       0.124733723101823     
  0.212137087700000       8.742944561795098E-002
  6.905810860000000E-002  5.078212410621224E-003
 
[MO]
Sym=     1a
Ene=   -1.63108349134429     
Spin= Alpha
Occup=     2.00000000
           1 -4.103468057277383E-002
           2 -3.416678054018607E-003
           3  6.236204526335119E-004
           4  9.675096732680504E-004
           5 -2.963588229265729E-002
           6 -0.123969194713529     
           7  1.125120997698048E-002
           8 -2.428739363482956E-002
           9  3.723185022003195E-002
          10 -2.928881129159029E-002
          11 -3.216750111441376E-002
          12 -0.596808432782334     
          13 -8.139737871344213E-003
          14  4.917312064477039E-003
          15 -1.432237182176089E-002
          16 -8.090551264598575E-002
          17 -2.246585801834201E-002
          18 -9.310811252460804E-002
          19  2.573206635564914E-002
          20  1.747314030054787E-002
          21 -1.598807457090504E-002
          22 -2.453987219788306E-002
          23 -2.637244273761044E-002
          24 -0.454424206830979     
          25 -9.396024375794758E-003
          26 -3.823894099660901E-003
          27  9.541761380135525E-003
          28 -6.065199389969651E-002
          29 -8.266566111891625E-002
          30 -2.844732658200675E-003
          31  9.699296200574081E-003
          32  8.697553975070323E-003
          33 -8.943162155567275E-002
          34  4.192936761623505E-003
          35 -1.315340354359655E-002
          36 -3.194669432498593E-003
          37 -7.212614007135240E-002
          38  2.559565065014285E-003
          39 -4.750402182034858E-003
          40  1.014158677412726E-002
          41 -2.370064127426072E-002
          42  3.807450478396586E-003
          43 -6.354191463119429E-003
          44  7.184904428396715E-003
          45 -5.147923631278808E-002
          46 -4.666970078695770E-003
          47  1.033143636102812E-002
          48 -7.512959636800671E-003
          49 -5.169744322100692E-002
          50 -1.258501975947132E-003
          51 -6.998308462868005E-004
          52 -1.570175848467936E-002
          53 -1.910410828417118E-002
          54 -1.055002584283776E-002
          55 -6.716566054919500E-003
          56 -8.406679197573033E-003
          57 -1.231389323264588E-002
          58 -1.773650478839385E-002
          59 -9.084804295778331E-002
          60 -2.413386250011178E-003
          61 -1.428430776595628E-002
          62 -2.011688095177812E-007
          63 -9.651506355824371E-002
          64  7.610603588329347E-003
          65  1.335246802327192E-002
          66 -1.993859710605844E-003
          67 -7.987854602176492E-002
          68  9.942453500101950E-003
          69 -4.925177836574264E-003
          70 -4.668992929381963E-003
          71 -2.544901998818827E-002
          72  1.138051155086718E-002
          73 -1.319447576187625E-004
          74 -4.606497581722734E-003
          75 -5.555744205853644E-002
          76 -1.349721600204742E-002
          77 -1.643677702050221E-003
          78  5.862165459393659E-003
          79 -5.588908915019956E-002
          80 -8.528823204525603E-003
          81  1.272853308122262E-002
          82  4.828179791570673E-003
          83 -2.103115078673559E-002
          84 -1.816977359642684E-002
          85 -8.357496693376841E-003
          86 -8.774100705470878E-003
          87 -1.323143511522244E-002
          88 -1.463365963584331E-002
Sym=     2a
Ene=   -1.60899186337684     
Spin= Alpha
Occup=     2.00000000
           1  8.697169739029046E-003
           2 -9.506825663018746E-003
           3  8.185566504589976E-003
           4 -1.079508774661547E-002
           5 -2.686248412913503E-002
           6 -0.119253690029664     
           7  1.310699252322921E-002
           8 -2.383940813013223E-002
           9  3.689924342502141E-002
          10 -2.662166713065624E-002
          11 -2.770098163407210E-002
          12 -0.539310604216847     
          13 -6.484252101623732E-003
          14  2.702449805337810E-003
          15 -1.084376999639736E-002
          16 -7.013771663074840E-002
          17  2.911567320697599E-002
          18  0.128400695152392     
          19 -3.376725469948598E-002
          20 -2.372509789759596E-002
          21  2.440534726415894E-002
          22  2.742011002630062E-002
          23  2.843538961063701E-002
          24  0.590412725007537     
          25  1.045372165015078E-002
          26  2.810010470612921E-003
          27 -1.009589101984027E-002
          28  7.874028629846976E-002
          29  8.804282020021256E-002
          30  2.810022910397810E-003
          31 -9.853158152548032E-003
          32 -9.262222274302911E-003
          33  8.766684421831294E-002
          34 -3.734828405405623E-003
          35  1.107060517184323E-002
          36  2.494187729410925E-003
          37  7.458063678377046E-002
          38 -3.107096104466309E-003
          39  5.526848577335204E-003
          40 -1.099300864182592E-002
          41  2.789488281493947E-002
          42 -9.961912170821288E-004
          43  2.517084173868856E-003
          44 -8.240389389553562E-003
          45  5.583581188619093E-002
          46  4.911458016960556E-003
          47 -1.077549522598407E-002
          48  8.158596928093726E-003
          49  5.558540569269647E-002
          50  1.943661671244216E-003
          51 -8.566035246572303E-004
          52  1.670349101159044E-002
          53  2.055774102437320E-002
          54  3.590816319651413E-003
          55  6.544888740369842E-003
          56  4.350976930860960E-003
          57  1.335518882248601E-002
          58  1.910998028246700E-002
          59  3.423098845631993E-003
          60  1.023125118340666E-004
          61  6.147991999342303E-004
          62  4.212164169801392E-007
          63  4.355403051838815E-003
          64  2.824715907105309E-004
          65 -7.669765377344438E-004
          66  3.980446272526237E-004
          67  2.504855185594812E-003
          68 -4.275602319525072E-004
          69  9.100840704154228E-005
          70  2.568009771800272E-004
          71  1.001277749551977E-003
          72  7.948361464965819E-004
          73  1.938731266519467E-004
          74  1.649491393898411E-003
          75  2.268545231245661E-003
          76  5.553262139046729E-004
          77  6.436119189356537E-005
          78 -1.954600342822023E-004
          79  2.111057863465537E-003
          80  3.746108135222948E-004
          81 -1.256414674319268E-003
          82  6.188487675304284E-005
          83  7.318325977873755E-004
          84 -1.353798867279013E-003
          85  9.989719335800073E-004
          86 -1.019593613309212E-003
          87  5.405949828453567E-004
          88  1.065719835194059E-003
Sym=     3a
Ene=   -1.60155501471649     
Spin= Alpha
Occup=     2.00000000
           1 -1.281621432836882E-002
           2  1.482033949592250E-002
           3  2.157708064025435E-002
           4 -5.315051465148871E-003
           5  8.505773433282801E-003
           6  4.002515667982308E-002
           7 -5.924642405985745E-003
           8  6.002878591679394E-003