12
 energy: -265.542362105700 gnorm: 0.000274677780 xtb: 6.7.1 (edcfbbe)
N            0.08889453903124        1.11022314156351       -0.00000977837849
N            0.02371686603557       -1.09487588954157       -0.00005685180254
C           -0.68839880004047        0.00343596207880       -0.00008066753348
C           -2.16367255842067        0.05655533204276       -0.00018940186083
C            1.38886927507542        0.67444869237792        0.00002755679334
C            1.32258202423440       -0.67926425655910       -0.00001636542490
H           -0.21924525847132        2.06355449055549        0.00001164908808
H           -2.53983352868388        0.57308166732584        0.88277382030323
H           -2.53966745881143        0.57212743282452       -0.88378399968348
H           -2.53805429533300       -0.96332269256821        0.00029130068024
H            2.21995533361313        1.35386659869729        0.00006330739729
H            2.13585565177100       -1.37783077879725       -0.00003325957845
