35
 energy: -2540.743411933600 gnorm: 0.000802138613 xtb: 6.7.1 (edcfbbe)
ZN          -0.05023887728000        0.12161328774936       -0.44492692786952
H            0.77334758245848       -1.06840824404990        2.38110671424202
C            1.62510278943738       -1.23222611854591        1.72273367478303
H            2.54881847186859       -1.25184301675742        2.29724371920590
H            1.48677467235160       -2.17252835848747        1.19750372108524
O            1.69967625632493       -0.20104899798037        0.71912642201336
H            1.69123674680820        0.66072801610268        1.15281528704145
H            2.38118406209307        0.28641914811760       -3.53131375399211
C            2.07257647863168        0.42606407423267       -2.49808600874987
H            2.80100949318423       -0.01981533922541       -1.82144350521111
H            1.97029807718729        1.48653169030442       -2.27740098356550
O            0.77121066327264       -0.14485264992566       -2.29709551569267
H            0.78433937553791       -1.10090456115473       -2.41589473018068
H           -0.63418034327761        0.97269761154690        2.29713952240755
H           -0.62976071263210        2.55313983761618        3.10985016351024
H           -0.25492510303967        5.16509751235444       -0.80098255479503
H           -0.31515925135291        2.76960262942242       -2.10640807362687
H            0.89513885471380        1.77766295456712        2.70803827701010
C           -0.13198278455559        1.94000916778590        2.36345694088419
C           -0.22990794035377        4.17350312626742       -0.39234092585014
C           -0.17564115517337        2.64390437363054        1.06196030192370
C           -0.25438242644874        2.98948097038108       -1.05525784677208
N           -0.17787911375963        3.95373896574717        0.94937576334044
N           -0.21764803968991        1.99855804990210       -0.11876874517517
H            1.20985865922401       -2.62950037089195       -1.04160224893989
H           -0.02048050770958       -2.92874552791692       -2.29024788875118
H           -3.19958843666614       -3.22095305128475        1.64602202007374
H           -2.57811999838033       -0.59409213970931        1.24390090749768
H            0.40043019006231       -4.20690953736669       -1.15090490962363
C            0.26118704361954       -3.13390685629419       -1.25301910732328
C           -2.42982293050386       -2.79589840993813        1.03202614780650
C           -0.80502742738972       -2.71593486805816       -0.31461519884545
C           -2.13099111070646       -1.48602930826809        0.84235237959372
N           -1.58649412763067       -3.57524031390159        0.30027821702735
N           -1.08222496021480       -1.42870817597578       -0.02812315448063
