[Molden Format]
[Title]
[Atoms] AU
Zn     1    30 -0.50315734190893E+00 -0.61582947026716E-01 -0.15531816083302E+00
H      2     1 -0.67385284129198E+01  0.22867179537137E+01 -0.12242109210481E+01
C      3     6 -0.53781105108219E+01  0.17259083023583E+01 -0.26621428748467E+01
H      4     1 -0.63438167562142E+01  0.11641883552992E+01 -0.43858631206229E+01
H      5     1 -0.40710184044651E+01  0.32678335855679E+01 -0.30504273224710E+01
O      6     8 -0.38689322152358E+01 -0.39188193455648E+00 -0.17544459789931E+01
H      7     1 -0.49325476896303E+01 -0.18383257533528E+01 -0.14746320647134E+01
H      8     1  0.30295142619940E+01  0.46233319811285E+01  0.32009515098828E+01
C      9     6  0.18043151724592E+01  0.49515892911365E+01  0.15806940046844E+01
H     10     1  0.10895618457607E+01  0.68774752709601E+01  0.15958947319754E+01
H     11     1  0.28140510407529E+01  0.45841932524260E+01 -0.17311687435511E+00
O     12     8 -0.32822277507437E+00  0.32085531602925E+01  0.16469000207096E+01
H     13     1 -0.13950303307362E+01  0.35825388990995E+01  0.30696137642766E+01
H     14     1 -0.15059431799111E+01 -0.64716670772730E+01  0.18839568422775E+01
C     15     6  0.28382473492460E+00 -0.56030945755562E+01  0.13599850949635E+01
H     16     1  0.18445892620723E+01 -0.65574397036015E+01  0.22942442610049E+01
H     17     1  0.53843515837618E+00 -0.56629924382019E+01 -0.68220345913944E+00
O     18     8  0.29174030595075E+00 -0.29491986090897E+01  0.20909460278958E+01
H     19     1  0.21201931787764E+00 -0.28012975060959E+01  0.39004556626588E+01
H     20     1  0.58975161999494E+01  0.21697583805139E+00 -0.37758838247291E+01
C     21     6  0.46277272599617E+01 -0.97709844405189E+00 -0.26896417804362E+01
H     22     1  0.46679748978538E+01 -0.29049556983572E+01 -0.34065427339689E+01
H     23     1  0.51502829261221E+01 -0.94266680473985E+00 -0.69918376448387E+00
O     24     8  0.20782028445622E+01  0.42047912187437E-01 -0.28629024737779E+01
H     25     1  0.15574891613771E+01  0.13744560040006E+00 -0.46017434389979E+01
[GTO]
           1 0
 s           5   1.000000    
   1.82046632240000       0.239989386768874     
   1.13274582070000      -0.436455044839608     
  0.315046004900000       8.903101707734505E-003
  0.148617277200000       0.166173079314136     
  5.129314220000000E-002  1.369319644501198E-002
 p           3   1.000000    
   1.22375302100000      -0.199124506348919     
  0.183640111800000       0.158702748136128     
  4.740596480000000E-002  5.249973069678011E-003
 
           2 0
 s           8   1.000000    
   337.005012218500       3.607040569652712E-002
   53.3105310515000       6.212185521146595E-002
   12.2082534814000       0.112244614961096     
   3.41882690980000       0.171026884223683     
   1.10879012580000       0.212034979310873     
  0.478717798300000       0.125010430560218     
  0.212137087700000       8.762309153287572E-002
  6.905810860000000E-002  4.548804923985433E-003
 
           3 0
 s           6   1.000000    
   2.20862762910000       -1.34260563947769     
   1.91795894900000        1.02908453918419     
  0.497153036800000       0.269329700538134     
  0.192182467300000       0.135202972577596     
  0.150531183200000      -6.850861041353196E-002
  7.818867730000000E-002  2.247632563263656E-002
 p           6   1.000000    
   24.5973356357000       0.519687306680807     
   6.48816086650000       0.742812823931295     
   2.22635867440000       0.660273041603278     
  0.776897003100000       0.444659582149055     
  0.283424721400000       0.121048204279726     
  9.862825729999999E-002  1.316178023880308E-002
 
           4 0
 s           8   1.000000    
   337.005012218500       3.621858795032801E-002
   53.3105310515000       6.225347835825547E-002
   12.2082534814000       0.112646261995316     
   3.41882690980000       0.171498000678501     
   1.10879012580000       0.212826903309100     
  0.478717798300000       0.125160769795439     
  0.212137087700000       8.772830080236194E-002
  6.905810860000000E-002  4.258687149442976E-003
 
           5 0
 s           8   1.000000    
   337.005012218500       3.589621114621840E-002
   53.3105310515000       6.196684998639686E-002
   12.2082534814000       0.111772328657670     
   3.41882690980000       0.170472548638417     
   1.10879012580000       0.211103861774973     
  0.478717798300000       0.124832887399043     
  0.212137087700000       8.749884333686136E-002
  6.905810860000000E-002  4.889159534603007E-003
 
           6 0
 s           6   1.000000    
   3.48359494310000       -1.32505284955161     
   2.85986576440000        1.12624121727207     
  0.740681029000000       0.298509023369070     
  0.344926919200000       8.221181852206977E-002
  0.261978532900000       3.987446926093382E-002
  9.461635039999999E-002  1.033547792280948E-002
 p           6   1.000000    
   37.6414713255000        1.51721568879805     
   9.71308856170000        1.83996741697286     
   3.13717714760000        1.35094331634536     
   1.12138051620000       0.650571346713049     
  0.398077926500000       0.185629790284280     
  0.123047771000000       1.528402858873149E-002
 
           7 0
 s           8   1.000000    
   337.005012218500       3.825418377445333E-002
   53.3105310515000       6.403906274395810E-002
   12.2082534814000       0.118152886010368     
   3.41882690980000       0.177927563786054     
   1.10879012580000       0.223691216465084     
  0.478717798300000       0.127159757133429     
  0.212137087700000       8.912711272875681E-002
  6.905810860000000E-002  2.169920350629874E-004
 
           8 0
 s           8   1.000000    
   337.005012218500       3.606373548603271E-002
   53.3105310515000       6.211592528744948E-002
   12.2082534814000       0.112226532945817     
   3.41882690980000       0.171005668046809     
   1.10879012580000       0.211999328729152     
  0.478717798300000       0.125003648273192     
  0.212137087700000       8.761834518033744E-002
  6.905810860000000E-002  4.561851418873884E-003
 
           9 0
 s           6   1.000000    
   2.20862762910000       -1.34274926933836     
   1.91795894900000        1.02919513388821     
  0.497153036800000       0.269358658170325     
  0.192182467300000       0.135217496575514     
  0.150531183200000      -6.853619205675206E-002
  7.818867730000000E-002  2.247874333612529E-002
 p           6   1.000000    
   24.5973356357000       0.519726356467007     
   6.48816086650000       0.742848263411285     
   2.22635867440000       0.660305957474264     
  0.776897003100000       0.444679921829263     
  0.283424721400000       0.121053722882977     
  9.862825729999999E-002  1.315647633794337E-002
 
          10 0
 s           8   1.000000    
   337.005012218500       3.619781689555237E-002
   53.3105310515000       6.223504151479522E-002
   12.2082534814000       0.112589968481996     
   3.41882690980000       0.171431987682832     
   1.10879012580000       0.212715905839371     
  0.478717798300000       0.125139734841993     
  0.212137087700000       8.771358034047282E-002
  6.905810860000000E-002  4.299386329746354E-003
 
          11 0
 s           8   1.000000    
   337.005012218500       3.585020400325009E-002
   53.3105310515000       6.192586131899990E-002
   12.2082534814000       0.111647567530961     
   3.41882690980000       0.170326048025565     
   1.10879012580000       0.210857909187088     
  0.478717798300000       0.124785849811668     
  0.212137087700000       8.746592527919088E-002
  6.905810860000000E-002  4.978927649594430E-003
 
          12 0
 s           6   1.000000    
   3.48359494310000       -1.32510683506499     
   2.85986576440000        1.12629229189402     
  0.740681029000000       0.298526849159141     
  0.344926919200000       8.221550849572645E-002
  0.261978532900000       3.987634028234888E-002
  9.461635039999999E-002  1.032628515903317E-002
 p           6   1.000000    
   37.6414713255000        1.51740467630104     
   9.71308856170000        1.84017045930263     
   3.13717714760000        1.35115475710201     
   1.12138051620000       0.650647935409696     
  0.398077926500000       0.185640802245920     
  0.123047771000000       1.526649621261189E-002
 
          13 0
 s           8   1.000000    
   337.005012218500       3.824764218711985E-002
   53.3105310515000       6.403339374910995E-002
   12.2082534814000       0.118135223211585     
   3.41882690980000       0.177907031291541     
   1.10879012580000       0.223656347215938     
  0.478717798300000       0.127153536448400     
  0.212137087700000       8.912276007119385E-002
  6.905810860000000E-002  2.301532259559516E-004
 
          14 0
 s           8   1.000000    
   337.005012218500       3.605278403710106E-002
   53.3105310515000       6.210618832326516E-002
   12.2082534814000       0.112196844629642     
   3.41882690980000       0.170970832601263     
   1.10879012580000       0.211940795406081     
  0.478717798300000       0.124992510018123     
  0.212137087700000       8.761055044755828E-002
  6.905810860000000E-002  4.583269360438618E-003
 
          15 0
 s           6   1.000000    
   2.20862762910000       -1.34194611386932     
   1.91795894900000        1.02857670592387     
  0.497153036800000       0.269196731708201     
  0.192182467300000       0.135136280691596     
  0.150531183200000      -6.838196518354407E-002
  7.818867730000000E-002  2.246522392399105E-002
 p           6   1.000000    
   24.5973356357000       0.519507920819598     
   6.48816086650000       0.742650010726616     
   2.22635867440000       0.660121823501355     
  0.776897003100000       0.444566138398496     
  0.283424721400000       0.121022850913762     
  9.862825729999999E-002  1.318614136657527E-002
 
          16 0
 s           8   1.000000    
   337.005012218500       3.615357159062693E-002
   53.3105310515000       6.219575417802198E-002
   12.2082534814000       0.112470048431401     
   3.41882690980000       0.171291343937436     
   1.10879012580000       0.212479456304294     
  0.478717798300000       0.125094885558906     
  0.212137087700000       8.768219431661009E-002
  6.905810860000000E-002  4.386045811582031E-003
 
          17 0
 s           8   1.000000    
   337.005012218500       3.579793546066787E-002
   53.3105310515000       6.187926913566737E-002
   12.2082534814000       0.111505814798539     
   3.41882690980000       0.170159562190546     
   1.10879012580000       0.210578467291999     
  0.478717798300000       0.124732336778120     
  0.212137087700000       8.742847543008048E-002
  6.905810860000000E-002  5.080850118855323E-003
 
          18 0
 s           6   1.000000    
   3.48359494310000       -1.32502855410163     
   2.85986576440000        1.12621823198072     
  0.740681029000000       0.298501001278565     
  0.344926919200000       8.221015790927232E-002
  0.261978532900000       3.987362724024387E-002
  9.461635039999999E-002  1.033961472142821E-002
 p           6   1.000000    
   37.6414713255000        1.51713063196986     
   9.71308856170000        1.83987603270086     
   3.13717714760000        1.35084815712052     
   1.12138051620000       0.650536876439386     
  0.398077926500000       0.185624833321143     
  0.123047771000000       1.529191794118380E-002
 
          19 0
 s           8   1.000000    
   337.005012218500       3.826153046777084E-002
   53.3105310515000       6.404542890473439E-002
   12.2082534814000       0.118172722395834     
   3.41882690980000       0.177950622295509     
   1.10879012580000       0.223730376898231     
  0.478717798300000       0.127166741825457     
  0.212137087700000       8.913199996475669E-002
  6.905810860000000E-002  2.022096667189855E-004
 
          20 0
 s           8   1.000000    
   337.005012218500       3.615808063613495E-002
   53.3105310515000       6.219975884221687E-002
   12.2082534814000       0.112482269927659     
   3.41882690980000       0.171305678621637     
   1.10879012580000       0.212503553478444     
  0.478717798300000       0.125099458759813     
  0.212137087700000       8.768539469723992E-002
  6.905810860000000E-002  4.377216544881966E-003
 
          21 0
 s           6   1.000000    
   2.20862762910000       -1.34270347027864     
   1.91795894900000        1.02915986870316     
  0.497153036800000       0.269349424488929     
  0.192182467300000       0.135212865327777     
  0.150531183200000      -6.852739709046662E-002
  7.818867730000000E-002  2.247797240624921E-002
 p           6   1.000000    
   24.5973356357000       0.519713905352141     
   6.48816086650000       0.742836963554667     
   2.22635867440000       0.660295462257500     
  0.776897003100000       0.444673436541628     
  0.283424721400000       0.121051963281748     
  9.862825729999999E-002  1.315816753106885E-002
 
          22 0
 s           8   1.000000    
   337.005012218500       3.595906570803317E-002
   53.3105310515000       6.202281483615522E-002
   12.2082534814000       0.111942760105219     
   3.41882690980000       0.170672633735558     
   1.10879012580000       0.211439858615412     
  0.478717798300000       0.124897051243798     
  0.212137087700000       8.754374661569390E-002
  6.905810860000000E-002  4.766435366044690E-003
 
          23 0
 s           8   1.000000    
   337.005012218500       3.582515538851561E-002
   53.3105310515000       6.190353631214848E-002
   12.2082534814000       0.111579637077242     
   3.41882690980000       0.170246269381251     
   1.10879012580000       0.210723994588739     
  0.478717798300000       0.124760214589056     
  0.212137087700000       8.744798508149249E-002
  6.905810860000000E-002  5.027780200748080E-003
 
          24 0
 s           6   1.000000    
   3.48359494310000       -1.32517726328044     
   2.85986576440000        1.12635892332717     
  0.740681029000000       0.298550105021621     
  0.344926919200000       8.222032239326402E-002
  0.261978532900000       3.987878120546082E-002
  9.461635039999999E-002  1.031429120629058E-002
 p           6   1.000000    
   37.6414713255000        1.51765119925613     
   9.71308856170000        1.84043530743669     
   3.13717714760000        1.35143058303323     
   1.12138051620000       0.650747839361364     
  0.398077926500000       0.185655162754980     
  0.123047771000000       1.524361994789108E-002
 
          25 0
 s           8   1.000000    
   337.005012218500       3.820548049852909E-002
   53.3105310515000       6.399684509913200E-002
   12.2082534814000       0.118021378065064     
   3.41882690980000       0.177774675172386     
   1.10879012580000       0.223431601703057     
  0.478717798300000       0.127113410776886     
  0.212137087700000       8.909468379922464E-002
  6.905810860000000E-002  3.149520087448831E-004
 
[MO]
Sym=     1a
Ene=   -1.68945422518175     
Spin= Alpha
Occup=     2.00000000
           1  4.938267424471363E-002
           2  2.167154250998536E-003
           3  9.799110569777963E-005
           4 -1.213159730836412E-003
           5  1.920453973051778E-002
           6  7.278600215675414E-002
           7  1.338703452147824E-002
           8 -2.106049880027722E-002
           9  8.436990385235706E-003
          10  1.833093342175809E-002
          11  2.214165607135513E-002
          12  0.372611951550661     
          13 -9.938727710362092E-003
          14  6.817677460420251E-003
          15 -2.954942637282057E-003
          16  5.056740435688825E-002
          17  1.953950851283595E-002
          18  7.364403474985466E-002
          19 -2.153836657765728E-002
          20 -1.599520704398103E-002
          21  1.845728111766985E-003
          22  1.865798978499210E-002
          23  2.411546377435180E-002
          24  0.378155696972075     
          25  8.004728084635666E-003
          26  8.997133019311109E-003
          27  3.712559430822896E-003
          28  5.128750182174976E-002
          29  2.185768685561814E-002
          30  8.545209460038374E-002
          31  8.665594785350505E-005
          32  2.948538314302137E-002
          33  9.542100921453939E-003
          34  2.116793036016485E-002
          35  2.502151598635786E-002
          36  0.430183049386515     
          37 -1.311090458009328E-003
          38 -1.376158376416929E-002
          39  9.618067924201024E-004
          40  5.786524718258483E-002
          41  2.126683616693699E-002
          42  8.582711084175901E-002
          43 -2.874695815863294E-002
          44  1.188274624208252E-002
          45 -3.223800841771809E-003
          46  2.243854576230690E-002
          47  2.544336587739662E-002
          48  0.432707395387096     
          49  1.219832141767247E-002
          50 -6.151108521443678E-003
          51 -3.904773249842492E-003
          52  5.842873276885315E-002
Sym=     2a
Ene=   -1.66482493855907     
Spin= Alpha
Occup=     2.00000000
           1  2.686583007200767E-003
           2 -9.204679364409494E-003
           3  1.575299246147398E-002
           4 -9.325765455272078E-003
           5  1.831943414969929E-002
           6  7.602198226144068E-002
           7  1.634184325039386E-002
           8 -2.220071303625798E-002
           9  9.950256894746410E-003
          10  1.759354397227397E-002
          11  2.031413282646515E-002
          12  0.358101856611562     
          13 -7.206455428074733E-003
          14  4.791849389150302E-003
          15 -1.472330194965192E-003
          16  4.522379787082243E-002
          17  1.599396778293756E-002
          18  7.282747575001065E-002
          19 -2.034352443488831E-002
          20 -1.820192719639117E-002
          21  5.058276661110982E-004
          22  1.679245675668994E-002
          23  1.771735999784642E-002
          24  0.344043004433413     
          25  6.245738310599640E-003
          26  5.033849700185784E-003
          27  3.132634239909879E-003
          28  4.516107389289605E-002
          29 -3.147760389742719E-002
          30 -0.142768377595417     
          31  5.802974785199369E-004
          32 -5.234105505475647E-002
          33 -1.198143352185962E-002
          34 -3.199974011971177E-002
          35 -3.246080422568557E-002
          36 -0.662473213317536     
          37  2.188352189926146E-003
          38  1.565928613322322E-002
          39 -8.245128862528592E-004
          40 -8.629064354584072E-002
          41  1.934138981574545E-003
          42  9.498676012179694E-003
          43 -2.467682740989337E-003
          44  2.786020710128332E-005
          45  4.538377479898372E-004
          46  2.013767788199010E-004
          47 -1.345339961173263E-003
          48  4.560461535539714E-002
          49  6.529831464374547E-004
          50 -1.319068143804505E-003
          51 -4.445917595935787E-004
          52  7.554620557742033E-003
Sym=     3a
Ene=   -1.66102413211462     
Spin= Alpha
Occup=     2.00000000
           1  1.765899238023956E-003
           2 -1.708009608614177E-002
           3 -1.004174680774630E-002
           4  2.842573701731868E-004
           5  2.932543528821605E-002
           6  0.132505938614277     
           7  2.902375085626507E-002
           8 -3.616671788790256E-002
           9  1.659643340374840E-002
          10  2.937744850430223E-002
          11  2.822347577311991E-002
          12  0.618572064651071     
          13 -1.213821403444776E-002
          14  8.474570286476274E-003
          15 -2.844838643542886E-003
          16  8.249701718535285E-002
          17 -1.411349175215244E-002
          18 -5.840233141914598E-002
          19  1.801614785247059E-002
          20  1.465872586056283E-002
          21 -6.610149698406154E-004
          22 -1.365373809626179E-002
          23 -1.849497254766531E-002
          24 -0.272780419374196     
          25 -4.192414003739789E-003
          26 -4.692683287351502E-003
          27 -1.549921834583938E-003
          28 -3.439445053783881E-002
          29  9.222291952011949E-003
          30  3.521734959280488E-002
          31  9.113339806754456E-004
          32  1.305083482008132E-002
          33  2.743824362316079E-003
          34  7.454924243342859E-003
          35  7.676739538935625E-003
          36  0.162019899023092     
          37  3.314412174478664E-004
          38 -4.102081759090669E-003
          39  4.761079984394218E-004
          40  2.086742621610726E-002
          41 -2.218732488406238E-002
          42 -9.776513146575985E-002
          43  3.462413304764686E-002
          44 -1.270821435342662E-002
          45  1.146307270600691E-003
          46 -2.163023524558379E-002
          47 -2.264348428760411E-002
          48 -0.453557866810717     
          49 -8.832017365695780E-003
          50  6.112675417499182E-003
          51  3.089536122788101E-003
          52 -5.752636745697925E-002
Sym=     4a
Ene=   -1.65838076628720     
Spin= Alpha
Occup=     2.00000000
           1 -1.774325671517335E-003
           2  3.506644122816024E-003
           3 -7.802384554491925E-003
           4 -1.791300996367036E-002
           5  6.921694635098224E-003
           6  3.808114163078077E-002
           7  7.967889692210484E-003
           8 -9.960253511390361E-003
           9  5.170968559670635E-003
          10  8.568559652064364E-003
          11  6.844916379625079E-003
          12  0.177697100224699     
          13 -3.331605741641983E-003
          14  2.187342473268976E-003
          15 -2.269988811097001E-004
          16  2.315332327553628E-002
          17 -2.781588248798567E-002
          18 -0.126295095816138     
          19  3.457819062972078E-002
          20  3.094463645197632E-002
          21  1.090175443966473E-003
          22 -2.772740773792121E-002
          23 -2.379646779465741E-002
          24 -0.587534862276453     
          25 -9.105998073641375E-003
          26 -9.713097480287133E-003
          27 -4.755223106780576E-003
          28 -7.831269560917392E-002
          29 -7.937579065023596E-003
          30 -3.811210258124096E-002
          31 -4.236325572342049E-004
          32 -1.345002791672390E-002
          33 -1.953698547171331E-003
          34 -7.813172903912707E-003
          35 -5.535181626346431E-003
          36 -0.174104508255673     
          37  1.912525525907987E-004
          38  4.219943443096309E-003
          39 -2.781648123411050E-004
          40 -2.492507124284827E-002
          41  2.542012126599654E-002
          42  0.115985360484155     
          43 -4.028730275120570E-002
          44  1.616556382963535E-002
          45 -1.837649605683585E-004
          46  2.582889974124606E-002
          47  2.461596260035767E-002
          48  0.533584302102094     
          49  1.087832390913167E-002
          50 -5.979268875162104E-003
          51 -3.381544306359718E-003
          52  7.094151587307092E-002
Sym=     5a
Ene=   -1.03076620855187     
Spin= Alpha
Occup=     2.00000000
           1 -4.879992617090489E-002
           2 -7.998100105587960E-003
           3  9.523430180301735E-003
           4 -1.105983303408111E-002
           5  1.170220727127687E-002
           6  4.483820261217423E-002
           7 -3.269379096518828E-005
           8  1.445784144527649E-003
           9 -2.768342215643037E-004
          10  1.195703149428493E-002
          11  1.109530323513347E-002
          12 -1.722718803388673E-002
          13 -1.025973987690434E-002
          14  1.620207043949062E-002
          15 -7.936215567318598E-003
          16 -2.800148354309600E-003
          17  4.466302018104436E-002
          18  0.157973144094807     
          19  7.805216670701506E-003
          20  3.875787667424124E-003
          21 -9.357912307342039E-004
          22  4.409885280499299E-002
          23  4.603365688658710E-002
          24 -7.296209583920785E-002
          25  5.666061976871962E-002
          26  4.081251471466863E-002
          27 -9.923973631316738E-003
          28 -2.429684510576339E-002
          29  0.157635662569282     
          30  0.540763692708557     
          31 -1.541634916034058E-003
          32 -4.008878143890904E-002
          33 -1.978642029087460E-002
          34  0.154610704122458     
          35  0.165688607524033     
          36 -0.298724518256155     
          37  4.248521507260993E-003
          38 -0.218788409264090     
          39 -0.109120107822384     
          40 -8.946299646030220E-002
          41  5.098049040838051E-002
          42  0.176560442140938     
          43  1.282097646629372E-002
          44 -6.403166219267097E-003
          45  3.597066887517812E-003
          46  5.665288322226752E-002
          47  5.465315730586516E-002
          48 -0.100460458499317     
          49  7.103456211912602E-002
          50 -2.548176242346573E-002
          51  1.828933767866171E-002
          52 -2.786447183643877E-002
Sym=     6a
Ene=   -1.02668534197392     
Spin= Alpha
Occup=     2.00000000
           1 -3.164124071147362E-002
           2 -1.279555032199329E-003
           3 -6.310619456477416E-003
           4  2.391156630112107E-002
           5  7.592640457297456E-002
           6  0.262782688842907     
           7 -7.216871468756962E-003
           8  1.586831796028722E-002
           9 -5.464831370141276E-003
          10  7.350469058879959E-002
          11  7.559981891658801E-002
          12 -0.132460622015157     
          13 -4.896178494437649E-002
          14  9.943252119936104E-002
          15 -4.052294396410443E-002
          16 -4.124502174392617E-002
          17  1.186095810149021E-002
          18  3.444277916943304E-002
          19  2.414536865800422E-003
          20  2.045655506316852E-003
          21 -9.889967176736228E-005
          22  1.022496148622843E-002
          23  1.199903588971016E-002
          24 -1.999697753633603E-002
          25  1.080640427970237E-002
          26  9.443785192338003E-003
          27 -1.175527873861584E-003
          28 -3.672604947959773E-003
          29 -5.883451349312686E-002
          30 -0.196884096996264     
          31  6.323342243532211E-004
          32  1.638980453073962E-002
          33  6.390252988177133E-003
          34 -5.443081746810702E-002
          35 -5.694244531373778E-002
          36  0.110139135015878     
          37  3.022152886947483E-004
          38  8.007373701220420E-002
          39  4.210547163121213E-002
          40  3.342561302054668E-002
          41  0.141460803881157     
          42  0.495864623233420     
          43  3.653107656557385E-002
          44 -1.688500400152756E-002
          45  9.479721431021760E-003
          46  0.144397710501540     
          47  0.149886120316992     
          48 -0.273446523935904     
          49  0.204217831058948     
          50 -7.621610874868258E-002
          51  5.846147783508644E-002
          52 -8.206678500337342E-002
Sym=     7a
Ene=   -1.02493833505518     
Spin= Alpha
Occup=     2.00000000
           1 -6.120095904449973E-003
           2  1.952119269031604E-002
           3  1.681663136500779E-002
           4  4.772481850265517E-003
           5  0.140738812802213     
           6  0.474930519246189     
           7 -1.749707047697776E-002
           8  3.627733373035281E-002
           9 -1.191118367021149E-002
          10  0.136216135973074     
          11  0.145984987794724     
          12 -0.272892262105751     
          13 -7.771083839734587E-002
          14  0.189325467337647     
          15 -7.361431948564039E-002
          16 -8.111247220556052E-002
          17 -8.245942573393342E-002
          18 -0.278875786055034     
          19 -1.836355418547848E-002
          20 -1.254997632676062E-002
          21  2.334129499998141E-003
          22 -7.874156437224901E-002
          23 -8.341282858588164E-002
          24  0.150197571407219     
          25 -0.102661381210845     
          26 -6.826349920312970E-002
          27  2.161426729341573E-002
          28  4.635574490864153E-002
          29  3.013580576441113E-002
          30  0.110705785501659     
          31 -6.579588264118598E-004
          32 -7.022467098043279E-003
          33 -3.022686824077934E-003
          34  3.030039509485412E-002
          35  2.902251880740824E-002
          36 -5.208028387001264E-002
          37  9.014759551800330E-004
          38 -4.509262094761556E-002
          39 -1.891721577387005E-002
          40 -1.566519677765128E-002
          41 -5.461659846141216E-002
          42 -0.185750905663908     
          43 -1.615616086834202E-002
          44  6.997120011682807E-003
          45 -3.979849899486738E-003
          46 -5.483388347014708E-002
          47 -5.933691444600232E-002
          48  0.111510777113519     
          49 -7.528796472217662E-002
          50  2.770754002161371E-002
          51 -2.379663907357802E-002
          52  3.348955727074478E-002
Sym=     8a
Ene=   -1.02406581951635     
Spin= Alpha
Occup=     2.00000000
           1 -2.366014364955638E-002
           2  1.502063567269195E-002
           3 -1.724823590576640E-002
           4 -9.178231234703352E-003
           5  6.737899064916725E-002
           6  0.236464569120288     
           7 -8.580081706788747E-003
           8  1.517032933052323E-002
           9 -5.389987671128182E-003
          10  6.739367072870392E-002
          11  7.020611382024564E-002
          12 -0.123498796700551     
          13 -4.184528515894320E-002
          14  9.070274388022882E-002
          15 -3.724951833821951E-002
          16 -3.848913538321774E-002
          17  0.146140583755903     
          18  0.498107239409948     
          19  3.622027893999216E-002
          20  2.222448092781168E-002
          21 -5.660482234680960E-003
          22  0.142892617183341     
          23  0.150909035563904     
          24 -0.281045616778891     
          25  0.188181581187902     
          26  0.121632258387522     
          27 -4.583350812621115E-002
          28 -8.395966233271915E-002