[Molden Format]
[Title]
[Atoms] AU
Zn     1    30  0.20063147624992E-03  0.10987482276919E-03 -0.11467776196831E-03
H      2     1 -0.22600947629066E+01  0.41325701122229E+01 -0.34903869079623E+01
H      3     1 -0.56623896039877E+00  0.24116222455184E+01 -0.57573375233915E+01
H      4     1 -0.76549521255168E+01 -0.39592423055778E+01 -0.45608783539230E+01
H      5     1 -0.42788278181017E+01 -0.42357894739934E+01 -0.64846527025101E+00
H      6     1 -0.35544299781498E+01  0.37220566672764E+01 -0.65833128464518E+01
C      7     6 -0.24633963425496E+01  0.28373997428651E+01 -0.50783092542599E+01
C      8     6 -0.61586973168244E+01 -0.26823124084637E+01 -0.40664577874704E+01
C      9     6 -0.37420288922141E+01  0.48897548190271E+00 -0.42481749452955E+01
C     10     6 -0.44994437157092E+01 -0.28381334531163E+01 -0.21046132991318E+01
N     11     7 -0.56837802203750E+01 -0.55369536374275E+00 -0.54472981344826E+01
N     12     7 -0.29588724400708E+01 -0.79495443656210E+00 -0.22228071294232E+01
H     13     1  0.23110739393273E+01 -0.40829122166242E+01 -0.35331237252859E+01
H     14     1  0.62415516165117E+00 -0.23249167990354E+01 -0.57768807888695E+01
H     15     1  0.76986046583972E+01  0.40336710868571E+01 -0.44204155542407E+01
H     16     1  0.42846899246566E+01  0.42453404683374E+01 -0.53663729517224E+00
H     17     1  0.36206545764559E+01 -0.36121315920816E+01 -0.66108916277895E+01
C     18     6  0.25189670560040E+01 -0.27580559839866E+01 -0.50959423759907E+01
C     19     6  0.61983801425522E+01  0.27482728014573E+01 -0.39612463069529E+01
C     20     6  0.37867938406623E+01 -0.42177406610127E+00 -0.42163966185739E+01
C     21     6  0.45208417896014E+01  0.28710332765438E+01 -0.20125170319057E+01
N     22     7  0.57415724745062E+01  0.63933650292795E+00 -0.53774960052157E+01
N     23     7  0.29821391443619E+01  0.82975788731616E+00 -0.21792268214644E+01
H     24     1  0.23366428521637E+01  0.55103510773918E+00  0.57883066864998E+01
H     25     1  0.40872320675856E+01  0.22530631960811E+01  0.35504131589267E+01
H     26     1 -0.40194243320029E+01  0.76426503630527E+01  0.45290149174873E+01
H     27     1 -0.42437318569911E+01  0.42776580075720E+01  0.60376019005706E+00
H     28     1  0.36345798565129E+01  0.35369164198397E+01  0.66417520894070E+01
C     29     6  0.27707129767002E+01  0.24505864346473E+01  0.51213818282538E+01
C     30     6 -0.27357090292298E+01  0.61481231192101E+01  0.40470872834870E+01
C     31     6  0.43313156491821E+00  0.37311149852724E+01  0.42640023018641E+01
C     32     6 -0.28655199661155E+01  0.44942170436813E+01  0.20789023538201E+01
N     33     7 -0.62617028989448E+00  0.56685774171023E+01  0.54554741887463E+01
N     34     7 -0.82363535798451E+00  0.29537952420975E+01  0.22194319843296E+01
H     35     1 -0.36997111559951E+01 -0.36377194270520E+01  0.65519605528456E+01
H     36     1 -0.24006181078611E+01 -0.63927377972603E+00  0.57445706094501E+01
H     37     1  0.42390707391648E+01 -0.42845339573036E+01  0.58256499694709E+00
H     38     1  0.39739142177163E+01 -0.77112571721774E+01  0.44516252419314E+01
H     39     1 -0.41287196927772E+01 -0.23185879933618E+01  0.34723169426688E+01
C     40     6 -0.28250869329755E+01 -0.25317678755140E+01  0.50520126942768E+01
C     41     6  0.28449300510592E+01 -0.45250392369208E+01  0.20389622291560E+01
C     42     6 -0.47748655797432E+00 -0.37975378016734E+01  0.42000930891429E+01
C     43     6  0.26948659630909E+01 -0.62095890990495E+01  0.39796033469846E+01
N     44     7  0.80120193123765E+00 -0.29873076132372E+01  0.21820623365294E+01
N     45     7  0.56905295618118E+00 -0.57541972854924E+01  0.53712827258903E+01
[GTO]
           1 0
 s           5   1.000000    
   1.82046632240000       0.240061889641707     
   1.13274582070000      -0.436585336474313     
  0.315046004900000       8.906850381339319E-003
  0.148617277200000       0.166222754517260     
  5.129314220000000E-002  1.367112867745902E-002
 p           3   1.000000    
   1.22375302100000      -0.199262934161368     
  0.183640111800000       0.158804896786597     
  4.740596480000000E-002  5.224408000291328E-003
 
           2 0
 s           8   1.000000    
   337.005012218500       3.354274060633037E-002
   53.3105310515000       5.984421531912137E-002
   12.2082534814000       0.105377786064212     
   3.41882690980000       0.162929909364179     
   1.10879012580000       0.198505714814886     
  0.478717798300000       0.122350636426472     
  0.212137087700000       8.576158433307000E-002
  6.905810860000000E-002  9.416526602920566E-003
 
           3 0
 s           8   1.000000    
   337.005012218500       3.364248959706680E-002
   53.3105310515000       5.993522619145495E-002
   12.2082534814000       0.105649314134455     
   3.41882690980000       0.163251553480860     
   1.10879012580000       0.199040341591353     
  0.478717798300000       0.122458916690516     
  0.212137087700000       8.583737135903793E-002
  6.905810860000000E-002  9.227252325261826E-003
 
           4 0
 s           8   1.000000    
   337.005012218500       3.366020567773450E-002
   53.3105310515000       5.995138087688402E-002
   12.2082534814000       0.105697534769766     
   3.41882690980000       0.163308661907272     
   1.10879012580000       0.199135288793308     
  0.478717798300000       0.122478120214249     
  0.212137087700000       8.585081216045638E-002
  6.905810860000000E-002  9.193612353850664E-003
 
           5 0
 s           8   1.000000    
   337.005012218500       3.398495931048336E-002
   53.3105310515000       6.024700529303776E-002
   12.2082534814000       0.106581223561790     
   3.41882690980000       0.164354566803008     
   1.10879012580000       0.200875441932343     
  0.478717798300000       0.122828649268266     
  0.212137087700000       8.609614990530259E-002
  6.905810860000000E-002  8.575690188537894E-003
 
           6 0
 s           8   1.000000    
   337.005012218500       3.333136170705840E-002
   53.3105310515000       5.965105588678806E-002
   12.2082534814000       0.104802245531643     
   3.41882690980000       0.162247753342084     
   1.10879012580000       0.197372592295869     
  0.478717798300000       0.122120304302103     
  0.212137087700000       8.560037004143689E-002
  6.905810860000000E-002  9.816875751869417E-003
 
           7 0
 s           6   1.000000    
   2.20862762910000       -1.27722920674857     
   1.91795894900000       0.978745878979848     
  0.497153036800000       0.256149273837021     
  0.192182467300000       0.128592167637256     
  0.150531183200000      -5.599677909989519E-002
  7.818867730000000E-002  2.137588011522600E-002
 p           6   1.000000    
   24.5973356357000       0.501286184905529     
   6.48816086650000       0.726008936015373     
   2.22635867440000       0.644677113102038     
  0.776897003100000       0.435008339518729     
  0.283424721400000       0.118429455262035     
  9.862825729999999E-002  1.562896970367355E-002
 
           8 0
 s           6   1.000000    
   2.20862762910000       -1.33533313298478     
   1.91795894900000        1.02348473727787     
  0.497153036800000       0.267863473316092     
  0.192182467300000       0.134467570914641     
  0.150531183200000      -6.711259127089066E-002
  7.818867730000000E-002  2.235390879291946E-002
 p           6   1.000000    
   24.5973356357000       0.517702372439686     
   6.48816086650000       0.741010149222254     
   2.22635867440000       0.658598870756322     
  0.776897003100000       0.443624893263413     
  0.283424721400000       0.120767468532176     
  9.862825729999999E-002  1.343099435958643E-002
 
           9 0
 s           6   1.000000    
   2.20862762910000       -1.41605594299392     
   1.91795894900000        1.08564248639118     
  0.497153036800000       0.284138620332115     
  0.192182467300000       0.142630504433393     
  0.150531183200000      -8.266808183202019E-002
  7.818867730000000E-002  2.371274105568983E-002
 p           6   1.000000    
   24.5973356357000       0.538913670308871     
   6.48816086650000       0.760143306934872     
   2.22635867440000       0.676382374393035     
  0.776897003100000       0.454598014709849     
  0.283424721400000       0.123744544411021     
  9.862825729999999E-002  1.051383345258715E-002
 
          10 0
 s           6   1.000000    
   2.20862762910000       -1.33834518364717     
   1.91795894900000        1.02580400144833     
  0.497153036800000       0.268470739047555     
  0.192182467300000       0.134772151500399     
  0.150531183200000      -6.769065133210746E-002
  7.818867730000000E-002  2.240461003509059E-002
 p           6   1.000000    
   24.5973356357000       0.518526307313645     
   6.48816086650000       0.741758727704360     
   2.22635867440000       0.659294054130642     
  0.776897003100000       0.444054578218345     
  0.283424721400000       0.120884052740738     
  9.862825729999999E-002  1.331933730203028E-002
 
          11 0
 s           6   1.000000    
   2.69507309610000       -1.13149552749278     
   2.24947021280000       0.933997821486083     
  0.611851695800000       0.235083914420345     
  0.303726665600000       8.981767983691463E-002
  0.171628270400000       3.124605084045317E-002
  7.154913430000000E-002  1.005256952154317E-002
 p           6   1.000000    
   27.5476401720000       0.933045291003957     
   7.12656627820000        1.19645764507372     
   2.35805520400000       0.902766970036871     
  0.845047262300000       0.474911693164464     
  0.301063057900000       0.123615294719506     
  9.457452580000000E-002  1.265751838510864E-002
 
          12 0
 s           6   1.000000    
   2.69507309610000       -1.13707312024090     
   2.24947021280000       0.938669484250279     
  0.611851695800000       0.236263734596030     
  0.303726665600000       9.026728602999110E-002
  0.171628270400000       3.140616855913457E-002
  7.154913430000000E-002  9.386684864712220E-003
 p           6   1.000000    
   27.5476401720000       0.943291206551370     
   7.12656627820000        1.20472333079803     
   2.35805520400000       0.912166283793185     
  0.845047262300000       0.478551012657158     
  0.301063057900000       0.124345232999560     
  9.457452580000000E-002  1.176301453573073E-002
 
          13 0
 s           8   1.000000    
   337.005012218500       3.353880808730587E-002
   53.3105310515000       5.984062544426953E-002
   12.2082534814000       0.105367080411623     
   3.41882690980000       0.162917225355883     
   1.10879012580000       0.198484636425494     
  0.478717798300000       0.122346362135720     
  0.212137087700000       8.575859268308585E-002
  6.905810860000000E-002  9.423983960638560E-003
 
          14 0
 s           8   1.000000    
   337.005012218500       3.364332931117244E-002
   53.3105310515000       5.993599196230825E-002
   12.2082534814000       0.105651599747027     
   3.41882690980000       0.163254260450270     
   1.10879012580000       0.199044841979276     
  0.478717798300000       0.122459827096352     
  0.212137087700000       8.583800856445802E-002
  6.905810860000000E-002  9.225658004939651E-003
 
          15 0
 s           8   1.000000    
   337.005012218500       3.366026510672376E-002
   53.3105310515000       5.995143506333626E-002
   12.2082534814000       0.105697696524656     
   3.41882690980000       0.163308853469773     
   1.10879012580000       0.199135607292748     
  0.478717798300000       0.122478184618787     
  0.212137087700000       8.585085723802716E-002
  6.905810860000000E-002  9.193499495814880E-003
 
          16 0
 s           8   1.000000    
   337.005012218500       3.398397209129139E-002
   53.3105310515000       6.024610808689047E-002
   12.2082534814000       0.106578537938591     
   3.41882690980000       0.164351390095257     
   1.10879012580000       0.200870152974470     
  0.478717798300000       0.122827587994480     
  0.212137087700000       8.609540711869722E-002
  6.905810860000000E-002  8.577572267243381E-003
 
          17 0
 s           8   1.000000    
   337.005012218500       3.333069884179713E-002
   53.3105310515000       5.965044952226340E-002
   12.2082534814000       0.104800440383145     
   3.41882690980000       0.162245612974672     
   1.10879012580000       0.197369038519372     
  0.478717798300000       0.122119580138196     
  0.212137087700000       8.559986318117691E-002
  6.905810860000000E-002  9.818129626956390E-003
 
          18 0
 s           6   1.000000    
   2.20862762910000       -1.27718784707946     
   1.91795894900000       0.978714033453902     
  0.497153036800000       0.256140935578533     
  0.192182467300000       0.128587985464669     
  0.150531183200000      -5.598889028865867E-002
  7.818867730000000E-002  2.137518394807812E-002
 p           6   1.000000    
   24.5973356357000       0.501274136843788     
   6.48816086650000       0.725997867161269     
   2.22635867440000       0.644666847173348     
  0.776897003100000       0.435001977694223     
  0.283424721400000       0.118427728959125     
  9.862825729999999E-002  1.563056452550402E-002
 
          19 0
 s           6   1.000000    
   2.20862762910000       -1.33536515351339     
   1.91795894900000        1.02350939290334     
  0.497153036800000       0.267869929033904     
  0.192182467300000       0.134470808849159     
  0.150531183200000      -6.711873556085744E-002
  7.818867730000000E-002  2.235444778740524E-002
 p           6   1.000000    
   24.5973356357000       0.517711145222722     
   6.48816086650000       0.741018121880176     
   2.22635867440000       0.658606274492045     
  0.776897003100000       0.443629469729105     
  0.283424721400000       0.120768710244370     
  9.862825729999999E-002  1.342980618722385E-002
 
          20 0
 s           6   1.000000    
   2.20862762910000       -1.41606545616423     
   1.91795894900000        1.08564981186808     
  0.497153036800000       0.284140538411974     
  0.192182467300000       0.142631466457186     
  0.150531183200000      -8.266992290926010E-002
  7.818867730000000E-002  2.371290119899020E-002
 p           6   1.000000    
   24.5973356357000       0.538916066983784     
   6.48816086650000       0.760145452135859     
   2.22635867440000       0.676384370104272     
  0.776897003100000       0.454599243877407     
  0.283424721400000       0.123744877866911     
  9.862825729999999E-002  1.051349869475550E-002
 
          21 0
 s           6   1.000000    
   2.20862762910000       -1.33830947403056     
   1.91795894900000        1.02577650519294     
  0.497153036800000       0.268463539550649     
  0.192182467300000       0.134768540516824     
  0.150531183200000      -6.768379702908954E-002
  7.818867730000000E-002  2.240400894161147E-002
 p           6   1.000000    
   24.5973356357000       0.518516554315518     
   6.48816086650000       0.741749869181657     
   2.22635867440000       0.659285827204377     
  0.776897003100000       0.444049493582748     
  0.283424721400000       0.120882673156383     
  9.862825729999999E-002  1.332065976178506E-002
 
          22 0
 s           6   1.000000    
   2.69507309610000       -1.13150277726909     
   2.24947021280000       0.934003893490132     
  0.611851695800000       0.235085447880259     
  0.303726665600000       8.981826421230871E-002
  0.171628270400000       3.124625894035396E-002
  7.154913430000000E-002  1.005170655229254E-002
 p           6   1.000000    
   27.5476401720000       0.933058637750783     
   7.12656627820000        1.19646844888240     
   2.35805520400000       0.902779217826185     
  0.845047262300000       0.474916445722612     
  0.301063057900000       0.123616250278734     
  9.457452580000000E-002  1.265636092850326E-002
 
          23 0
 s           6   1.000000    
   2.69507309610000       -1.13707273729439     
   2.24947021280000       0.938669163490315     
  0.611851695800000       0.236263653587925     
  0.303726665600000       9.026725515961692E-002
  0.171628270400000       3.140615756461290E-002
  7.154913430000000E-002  9.386730718654668E-003
 p           6   1.000000    
   27.5476401720000       0.943290504674647     
   7.12656627820000        1.20472276652229     
   2.35805520400000       0.912165640116935     
  0.845047262300000       0.478550763982895     
  0.301063057900000       0.124345183247548     
  9.457452580000000E-002  1.176307622540138E-002
 
          24 0
 s           8   1.000000    
   337.005012218500       3.364288976004633E-002
   53.3105310515000       5.993559111782139E-002
   12.2082534814000       0.105650403335951     
   3.41882690980000       0.163252843479675     
   1.10879012580000       0.199042486236844     
  0.478717798300000       0.122459350543755     
  0.212137087700000       8.583767501882077E-002
  6.905810860000000E-002  9.226492559182932E-003
 
          25 0
 s           8   1.000000    
   337.005012218500       3.354301738037017E-002
   53.3105310515000       5.984446797229543E-002
   12.2082534814000       0.105378539534624     
   3.41882690980000       0.162930802065606     
   1.10879012580000       0.198507198326513     
  0.478717798300000       0.122350937239188     
  0.212137087700000       8.576179487706696E-002
  6.905810860000000E-002  9.416001734544209E-003
 
          26 0
 s           8   1.000000    
   337.005012218500       3.366017801861108E-002
   53.3105310515000       5.995135565770327E-002
   12.2082534814000       0.105697459486661     
   3.41882690980000       0.163308572751253     
   1.10879012580000       0.199135140558989     
  0.478717798300000       0.122478090239401     
  0.212137087700000       8.585079118067111E-002
  6.905810860000000E-002  9.193664879608801E-003
 
          27 0
 s           8   1.000000    
   337.005012218500       3.398522060505625E-002
   53.3105310515000       6.024724276169685E-002
   12.2082534814000       0.106581934384737     
   3.41882690980000       0.164355407602833     
   1.10879012580000       0.200876841798808     
  0.478717798300000       0.122828930159009     
  0.212137087700000       8.609634650101394E-002
  6.905810860000000E-002  8.575192041164012E-003
 
          28 0
 s           8   1.000000    
   337.005012218500       3.333180101113460E-002
   53.3105310515000       5.965145774366400E-002
   12.2082534814000       0.104803441865868     
   3.41882690980000       0.162249171834617     
   1.10879012580000       0.197374947506901     
  0.478717798300000       0.122120784224539     
  0.212137087700000       8.560070595103114E-002
  6.905810860000000E-002  9.816044759391945E-003
 
          29 0
 s           6   1.000000    
   2.20862762910000       -1.27724112364080     
   1.91795894900000       0.978755054578087     
  0.497153036800000       0.256151676325527     
  0.192182467300000       0.128593372639661     
  0.150531183200000      -5.599905209607203E-002
  7.818867730000000E-002  2.137608070070505E-002
 p           6   1.000000    
   24.5973356357000       0.501289656195341     
   6.48816086650000       0.726012125159864     
   2.22635867440000       0.644680070910366     
  0.776897003100000       0.435010172478644     
  0.283424721400000       0.118429952641974     
  9.862825729999999E-002  1.562851019841869E-002
 
          30 0
 s           6   1.000000    
   2.20862762910000       -1.33532462888516     
   1.91795894900000        1.02347818916947     
  0.497153036800000       0.267861758788913     
  0.192182467300000       0.134466710975140     
  0.150531183200000      -6.711095945699347E-002
  7.818867730000000E-002  2.235376564529113E-002
 p           6   1.000000    
   24.5973356357000       0.517700042490452     
   6.48816086650000       0.741008031768908     
   2.22635867440000       0.658596904403553     
  0.776897003100000       0.443623677802142     
  0.283424721400000       0.120767138746433     
  9.862825729999999E-002  1.343130992187465E-002
 
          31 0
 s           6   1.000000    
   2.20862762910000       -1.41605216160958     
   1.91795894900000        1.08563957459180     
  0.497153036800000       0.284137857915712     
  0.192182467300000       0.142630122039138     
  0.150531183200000      -8.266735002385907E-002
  7.818867730000000E-002  2.371267740042625E-002
 p           6   1.000000    
   24.5973356357000       0.538912717649488     
   6.48816086650000       0.760142454233317     
   2.22635867440000       0.676381581112671     
  0.776897003100000       0.454597526124747     
  0.283424721400000       0.123744411864745     
  9.862825729999999E-002  1.051396651585425E-002
 
          32 0
 s           6   1.000000    
   2.20862762910000       -1.33835424006273     
   1.91795894900000        1.02581097485051     
  0.497153036800000       0.268472564932093     
  0.192182467300000       0.134773067292037     
  0.150531183200000      -6.769238967509109E-002
  7.818867730000000E-002  2.240476248008854E-002
 p           6   1.000000    
   24.5973356357000       0.518528780740705     
   6.48816086650000       0.741760974276899     
   2.22635867440000       0.659296140527706     
  0.776897003100000       0.444055867710673     
  0.283424721400000       0.120884402611115     
  9.862825729999999E-002  1.331900191427429E-002
 
          33 0
 s           6   1.000000    
   2.69507309610000       -1.13149371155816     
   2.24947021280000       0.933996300561687     
  0.611851695800000       0.235083530317084     
  0.303726665600000       8.981753346171741E-002
  0.171628270400000       3.124599871529312E-002
  7.154913430000000E-002  1.005278567831490E-002
 p           6   1.000000    
   27.5476401720000       0.933041947879744     
   7.12656627820000        1.19645493889580     
   2.35805520400000       0.902763902180534     
  0.845047262300000       0.474910502727858     
  0.301063057900000       0.123615055366903     
  9.457452580000000E-002  1.265780830439953E-002
 
          34 0
 s           6   1.000000    
   2.69507309610000       -1.13707178450923     
   2.24947021280000       0.938668365427613     
  0.611851695800000       0.236263452036751     
  0.303726665600000       9.026717835297957E-002
  0.171628270400000       3.140613020983514E-002
  7.154913430000000E-002  9.386844804886333E-003
 p           6   1.000000    
   27.5476401720000       0.943288758378298     
   7.12656627820000        1.20472136258133     
   2.35805520400000       0.912164038625486     
  0.845047262300000       0.478550145271363     
  0.301063057900000       0.124345059462471     
  9.457452580000000E-002  1.176322971143166E-002
 
          35 0
 s           8   1.000000    
   337.005012218500       3.333177295363296E-002
   53.3105310515000       5.965143207789454E-002
   12.2082534814000       0.104803365458340     
   3.41882690980000       0.162249081238340     
   1.10879012580000       0.197374797084161     
  0.478717798300000       0.122120753572974     
  0.212137087700000       8.560068449724212E-002
  6.905810860000000E-002  9.816097833403894E-003
 
          36 0
 s           8   1.000000    
   337.005012218500       3.364427139462974E-002
   53.3105310515000       5.993685108048107E-002
   12.2082534814000       0.105654163994428     
   3.41882690980000       0.163257297411404     
   1.10879012580000       0.199049891003562     
  0.478717798300000       0.122460848467134     
  0.212137087700000       8.583872343571938E-002
  6.905810860000000E-002  9.223869302337909E-003
 
          37 0
 s           8   1.000000    
   337.005012218500       3.398473305530429E-002
   53.3105310515000       6.024679966822975E-002
   12.2082534814000       0.106580608059390     
   3.41882690980000       0.164353838752819     
   1.10879012580000       0.200874229786529     
  0.478717798300000       0.122828406043258     
  0.212137087700000       8.609597967187484E-002
  6.905810860000000E-002  8.576121533480148E-003
 
          38 0
 s           8   1.000000    
   337.005012218500       3.366027146147169E-002
   53.3105310515000       5.995144085749726E-002
   12.2082534814000       0.105697713821122     
   3.41882690980000       0.163308873953567     
   1.10879012580000       0.199135641349924     
  0.478717798300000       0.122478191505565     
  0.212137087700000       8.585086205817249E-002
  6.905810860000000E-002  9.193487427888766E-003
 
          39 0
 s           8   1.000000    
   337.005012218500       3.354114082533546E-002
   53.3105310515000       5.984275494548937E-002
   12.2082534814000       0.105373430925062     
   3.41882690980000       0.162924749437228     
   1.10879012580000       0.198497139964015     
  0.478717798300000       0.122348897659615     
  0.212137087700000       8.576036734016274E-002
  6.905810860000000E-002  9.419560359444743E-003
 
          40 0
 s           6   1.000000    
   2.20862762910000       -1.27723559084675     
   1.91795894900000       0.978750794516445     
  0.497153036800000       0.256150560894264     
  0.192182467300000       0.128592813179189     
  0.150531183200000      -5.599799678537530E-002
  7.818867730000000E-002  2.137598757255325E-002
 p           6   1.000000    
   24.5973356357000       0.501288044544732     
   6.48816086650000       0.726010644504579     
   2.22635867440000       0.644678697659688     
  0.776897003100000       0.435009321472487     
  0.283424721400000       0.118429721718545     
  9.862825729999999E-002  1.562872353781367E-002
 
          41 0
 s           6   1.000000    
   2.20862762910000       -1.33834083539390     
   1.91795894900000        1.02580065331146     
  0.497153036800000       0.268469862386328     
  0.192182467300000       0.134771711801719     
  0.150531183200000      -6.768981670275168E-002
  7.818867730000000E-002  2.240453684173350E-002
 p           6   1.000000    
   24.5973356357000       0.518525119739732     
   6.48816086650000       0.741757649049429     
   2.22635867440000       0.659293052381484     
  0.776897003100000       0.444053959089678     
  0.283424721400000       0.120883884756193     
  9.862825729999999E-002  1.331949833233518E-002
 
          42 0
 s           6   1.000000    
   2.20862762910000       -1.41605287249658     
   1.91795894900000        1.08564012199987     
  0.497153036800000       0.284138001247323     
  0.192182467300000       0.142630193927917     
  0.150531183200000      -8.266748760120549E-002
  7.818867730000000E-002  2.371268936739265E-002
 p           6   1.000000    
   24.5973356357000       0.538912896746395     
   6.48816086650000       0.760142614538521     
   2.22635867440000       0.676381730246873     
  0.776897003100000       0.454597617977208     
  0.283424721400000       0.123744436783028     
  9.862825729999999E-002  1.051394150040135E-002
 
          43 0
 s           6   1.000000    
   2.20862762910000       -1.33533384625452     
   1.91795894900000        1.02348528649152     
  0.497153036800000       0.267863617119718     
  0.192182467300000       0.134467643040892     
  0.150531183200000      -6.711272813711888E-002
  7.818867730000000E-002  2.235392079923137E-002
 p           6   1.000000    
   24.5973356357000       0.517702567860052     
   6.48816086650000       0.741010326819751     
   2.22635867440000       0.658599035680553     
  0.776897003100000       0.443624995207976     
  0.283424721400000       0.120767496192344     
  9.862825729999999E-002  1.343096789231090E-002
 
          44 0
 s           6   1.000000    
   2.69507309610000       -1.13707343281752     
   2.24947021280000       0.938669746067695     
  0.611851695800000       0.236263800718163     
  0.303726665600000       9.026731122765454E-002
  0.171628270400000       3.140617753331341E-002
  7.154913430000000E-002  9.386647436833050E-003
 p           6   1.000000    
   27.5476401720000       0.943291779451723     
   7.12656627820000        1.20472379138265     
   2.35805520400000       0.912166809187921     
  0.845047262300000       0.478551215635149     
  0.301063057900000       0.124345273609152     
  9.457452580000000E-002  1.176296418206789E-002
 
          45 0
 s           6   1.000000    
   2.69507309610000       -1.13149599160161     
   2.24947021280000       0.933998210197464     
  0.611851695800000       0.235084012587822     
  0.303726665600000       8.981771724686430E-002
  0.171628270400000       3.124606416237996E-002
  7.154913430000000E-002  1.005251427705036E-002
 p           6   1.000000    
   27.5476401720000       0.933046145424657     
   7.12656627820000        1.19645833670560     
   2.35805520400000       0.902767754105741     
  0.845047262300000       0.474911997410608     
  0.301063057900000       0.123615355892049     
  9.457452580000000E-002  1.265744428863449E-002
 
[MO]
Sym=     1a
Ene=   -1.12382216897775     
Spin= Alpha
Occup=     2.00000000
           1 -4.521519557872496E-002
           2  2.693176339139652E-006
           3 -2.825418429609607E-006
           4  7.068748093432589E-006
           5 -1.729133121778524E-002
           6 -1.843893721362452E-002
           7 -2.598662757756404E-002
           8 -2.838428396602078E-002
           9 -1.550747360471101E-002
          10 -5.294216103851530E-002
          11  1.092398797063250E-002
          12  1.592126962801435E-002
          13 -4.572938793979789E-003
          14 -0.103933655169747     
          15 -1.773797880002414E-002
          16 -2.086641745642603E-002
          17 -9.599446920005079E-004
          18 -0.138123875699668     
          19  8.952275467989292E-003
          20  1.853085100779257E-002
          21 -6.914813024100060E-003
          22 -0.104718896504682     
          23 -2.287304995000105E-003
          24 -2.261409639996048E-002
          25  1.745002014380373E-002
          26 -0.157872108420225     
          27 -8.202109625696431E-003