25
 energy: -2241.718624619600 gnorm: 0.000474899311 xtb: 6.7.1 (edcfbbe)
ZN          -0.26625941774284       -0.03258829446076       -0.08219083698827
H           -3.56587592433929        1.21007911479129       -0.64782456675688
C           -2.84597372212698        0.91331140656721       -1.40874544156652
H           -3.35700349590163        0.61606199056726       -2.32089897837206
H           -2.15429031777789        1.72926318529459       -1.61421673718711
O           -2.04735090420615       -0.20737500385681       -0.92841289576676
H           -2.61019201438475       -0.97280016396535       -0.78034173852240
H            1.60315002138667        2.44656209657361        1.69387071251109
C            0.95480253834897        2.62026839667641        0.83646730408444
H            0.57657133958617        3.63940344036169        0.84451118312718
H            1.48913178682209        2.42585077180992       -0.09160951123634
O           -0.17368802500165        1.69789333295876        0.87150202147738
H           -0.73821831196227        1.89579807719065        1.62436976566990
H           -0.79691086830947       -3.42465897701655        0.99694709804761
C            0.15019359227738       -2.96503017045450        0.71967317052379
H            0.97611467027536       -3.47004789941180        1.21406186537489
H            0.28492763559329       -2.99672675659902       -0.36100654940954
O            0.15438233237313       -1.56064880517305        1.10648106575775
H            0.11219579925866       -1.48238290644392        2.06403239537595
H            3.12083139554327        0.11481867696623       -1.99811181294249
C            2.44888797813286       -0.51705826611545       -1.42329723676250
H            2.47018611241035       -1.53723646340694       -1.80266491078415
H            2.72541254772819       -0.49883782596372       -0.36999214067002
O            1.09973766306446        0.02225079847559       -1.51498285373449
H            0.82418782895176        0.07273308463510       -2.43513793125030
