[Molden Format]
[Title]
[Atoms] AU
Zn     1    30  0.23092767496238E-02 -0.12929939865291E-02 -0.43557562286167E-03
N      2     7 -0.57736014221350E+01 -0.74548960533202E+00 -0.52105369395165E+01
N      3     7 -0.29410642382460E+01 -0.87605512348959E+00 -0.22294589892400E+01
C      4     6 -0.38592974251444E+01  0.48844265197232E+00 -0.41055981432020E+01
C      5     6 -0.29295196579029E+01  0.29893733572165E+01 -0.49228735874104E+01
C      6     6 -0.60837155590966E+01 -0.30001753923925E+01 -0.39856334645034E+01
C      7     6 -0.43139182543391E+01 -0.30586026132019E+01 -0.21431114021759E+01
H      8     1 -0.68077840166322E+01 -0.12828404450253E+00 -0.66807755770347E+01
H      9     1 -0.14542263336998E+01  0.36220535611264E+01 -0.36384580904471E+01
H     10     1 -0.21608375532595E+01  0.28845810143144E+01 -0.68298644075737E+01
H     11     1 -0.44581604213131E+01  0.43660488168508E+01 -0.49358004309113E+01
H     12     1 -0.75076711032234E+01 -0.43440304734010E+01 -0.45127749811724E+01
H     13     1 -0.39386403718313E+01 -0.45096822423486E+01 -0.77699051127933E+00
N     14     7  0.58813089899108E+01  0.77490098427345E+00 -0.50901479719854E+01
N     15     7  0.29884153267903E+01  0.88585451749378E+00 -0.21666548703771E+01
C     16     6  0.39394465789178E+01 -0.46246027677109E+00 -0.40382209044381E+01
C     17     6  0.30206799689625E+01 -0.29529647506758E+01 -0.48986881288447E+01
C     18     6  0.61760113455642E+01  0.30145774560993E+01 -0.38343800716373E+01
C     19     6  0.43685441535690E+01  0.30611379236643E+01 -0.20284599741209E+01
H     20     1  0.69429065487417E+01  0.16890413185737E+00 -0.65454443900109E+01
H     21     1  0.14780063128526E+01 -0.35672432567628E+01 -0.36862617386046E+01
H     22     1  0.23479533904866E+01 -0.28415186793913E+01 -0.68411292841418E+01
H     23     1  0.45318049483355E+01 -0.43480291446584E+01 -0.48359363438466E+01
H     24     1  0.76159519467851E+01  0.43578703715351E+01 -0.43178185007507E+01
H     25     1  0.39710622775814E+01  0.44993290554029E+01 -0.65507503406495E+00
N     26     7 -0.81141435645180E+00  0.58109361694367E+01  0.51603027088520E+01
N     27     7 -0.90152763328229E+00  0.29557360606758E+01  0.21992830961786E+01
C     28     6  0.43795108931588E+00  0.38891125577823E+01  0.40859966869524E+01
C     29     6  0.29309705777008E+01  0.29713861158276E+01  0.49403111870666E+01
C     30     6 -0.30500294858810E+01  0.61104011178990E+01  0.39038018911475E+01
C     31     6 -0.30834489731241E+01  0.43266275736247E+01  0.20741881919662E+01
H     32     1 -0.21373446103758E+00  0.68567849974512E+01  0.66303652178279E+01
H     33     1  0.28199143486811E+01  0.22794221274730E+01  0.68759597730509E+01
H     34     1  0.35524098525616E+01  0.14429960350995E+01  0.37135205940946E+01
H     35     1  0.43205430906364E+01  0.44882110305780E+01  0.48938684311478E+01
H     36     1 -0.44018036114760E+01  0.75369101630389E+01  0.44031364616980E+01
H     37     1 -0.45169030460944E+01  0.39396176244330E+01  0.69283505861446E+00
N     38     7  0.70091591567358E+00 -0.58401586750100E+01  0.51443465054422E+01
N     39     7  0.85796322668562E+00 -0.29725565479792E+01  0.21982935240784E+01
C     40     6 -0.52026069816662E+00 -0.39085133865522E+01  0.40556042967607E+01
C     41     6 -0.30239822077406E+01 -0.29821190883119E+01  0.48682406473393E+01
C     42     6  0.29612943135694E+01 -0.61435556408265E+01  0.39282433041500E+01
C     43     6  0.30359288602010E+01 -0.43522698986351E+01  0.21071695046194E+01
H     44     1  0.72081029657288E-01 -0.68894275041967E+01  0.65988850961545E+01
H     45     1 -0.44095057658972E+01 -0.45027124314787E+01  0.48332654898842E+01
H     46     1 -0.29343929016644E+01 -0.22563987719295E+01  0.67928864064448E+01
H     47     1 -0.36351516180412E+01 -0.14754231741895E+01  0.36099576609295E+01
H     48     1  0.42973371338011E+01 -0.75782642625518E+01  0.44459894801294E+01
H     49     1  0.44957802047177E+01 -0.39660397639556E+01  0.75347578602054E+00
[GTO]
           1 0
 s           5   1.000000    
   1.82046632240000       0.243342007301439     
   1.13274582070000      -0.442479751194177     
  0.315046004900000       9.076537208183438E-003
  0.148617277200000       0.168470074845454     
  5.129314220000000E-002  1.267047221061522E-002
 p           3   1.000000    
   1.22375302100000      -0.205543381099270     
  0.183640111800000       0.163433897208558     
  4.740596480000000E-002  4.044996763313102E-003
 
           2 0
 s           6   1.000000    
   2.69507309610000       -1.15454291567714     
   2.24947021280000       0.953304240438385     
  0.611851695800000       0.239959859054242     
  0.303726665600000       9.167576457531057E-002
  0.171628270400000       3.190790113603062E-002
  7.154913430000000E-002  7.275019285106611E-003
 p           6   1.000000    
   27.5476401720000       0.975053247630224     
   7.12656627820000        1.22997104654790     
   2.35805520400000       0.941264248321936     
  0.845047262300000       0.489711313822917     
  0.301063057900000       0.126559643137443     
  9.457452580000000E-002  8.910400663602019E-003
 
           3 0
 s           6   1.000000    
   2.69507309610000       -1.14368126935475     
   2.24947021280000       0.944204803650100     
  0.611851695800000       0.237661697943237     
  0.303726665600000       9.080001406030667E-002
  0.171628270400000       3.159591462369286E-002
  7.154913430000000E-002  8.592619451635889E-003
 p           6   1.000000    
   27.5476401720000       0.955368099435441     
   7.12656627820000        1.21439200683925     
   2.35805520400000       0.923237465025575     
  0.845047262300000       0.482816723201066     
  0.301063057900000       0.125196069468920     
  9.457452580000000E-002  1.069294086809783E-002
 
           4 0
 s           6   1.000000    
   2.20862762910000       -1.43471296040047     
   1.91795894900000        1.10000913842289     
  0.497153036800000       0.287900341686252     
  0.192182467300000       0.144517214784745     
  0.150531183200000      -8.628237804606007E-002
  7.818867730000000E-002  2.402681288499650E-002
 p           6   1.000000    
   24.5973356357000       0.543569238537033     
   6.48816086650000       0.764303045644172     
   2.22635867440000       0.680253052395935     
  0.776897003100000       0.456980978545435     
  0.283424721400000       0.124390997965743     
  9.862825729999999E-002  9.861296153570528E-003
 
           5 0
 s           6   1.000000    
   2.20862762910000       -1.31046074798189     
   1.91795894900000        1.00433329575916     
  0.497153036800000       0.262848950169063     
  0.192182467300000       0.131952479195031     
  0.150531183200000      -6.234610392731142E-002
  7.818867730000000E-002  2.193524146025034E-002
 p           6   1.000000    
   24.5973356357000       0.510798074542075     
   6.48816086650000       0.734720836641474     
   2.22635867440000       0.652759965675720     
  0.776897003100000       0.440013707195465     
  0.283424721400000       0.119787639580941     
  9.862825729999999E-002  1.436155468205945E-002
 
           6 0
 s           6   1.000000    
   2.20862762910000       -1.36368785339769     
   1.91795894900000        1.04531791226567     
  0.497153036800000       0.273580178586234     
  0.192182467300000       0.137334840742839     
  0.150531183200000      -7.256152931883536E-002
  7.818867730000000E-002  2.283120280405224E-002
 p           6   1.000000    
   24.5973356357000       0.525356816390766     
   6.48816086650000       0.747948097172101     
   2.22635867440000       0.665043737950592     
  0.776897003100000       0.447606174061968     
  0.283424721400000       0.121847664633466     
  9.862825729999999E-002  1.238861499692567E-002
 
           7 0
 s           6   1.000000    
   2.20862762910000       -1.36592455491894     
   1.91795894900000        1.04704019281807     
  0.497153036800000       0.274031133610852     
  0.192182467300000       0.137561021246782     
  0.150531183200000      -7.299204733923265E-002
  7.818867730000000E-002  2.286885357262940E-002
 p           6   1.000000    
   24.5973356357000       0.525951031779914     
   6.48816086650000       0.748485136972144     
   2.22635867440000       0.665542780362241     
  0.776897003100000       0.447914244434427     
  0.283424721400000       0.121931247591234     
  9.862825729999999E-002  1.230721505765345E-002
 
           8 0
 s           8   1.000000    
   337.005012218500       3.789156588792212E-002
   53.3105310515000       6.372412778506244E-002
   12.2082534814000       0.117173458573365     
   3.41882690980000       0.176788104773944     
   1.10879012580000       0.221757879510059     
  0.478717798300000       0.126812907872695     
  0.212137087700000       8.888441644021847E-002
  6.905810860000000E-002  9.448352072667787E-004
 
           9 0
 s           8   1.000000    
   337.005012218500       3.511320349504459E-002
   53.3105310515000       6.126645415427837E-002
   12.2082534814000       0.109647639382478     
   3.41882690980000       0.167973973445768     
   1.10879012580000       0.206916137563651     
  0.478717798300000       0.124024115973607     
  0.212137087700000       8.693283239540252E-002
  6.905810860000000E-002  6.409952731072427E-003
 
          10 0
 s           8   1.000000    
   337.005012218500       3.531831693097154E-002
   53.3105310515000       6.145049834171452E-002
   12.2082534814000       0.110204489136921     
   3.41882690980000       0.168629560148159     
   1.10879012580000       0.208013502365205     
  0.478717798300000       0.124237657789562     
  0.212137087700000       8.708228018926009E-002
  6.905810860000000E-002  6.012999861650149E-003
 
          11 0
 s           8   1.000000    
   337.005012218500       3.534173989266764E-002
   53.3105310515000       6.147148965619655E-002
   12.2082534814000       0.110268066345072     
   3.41882690980000       0.168704376947692     
   1.10879012580000       0.208138799693451     
  0.478717798300000       0.124261967869800     
  0.212137087700000       8.709929354632462E-002
  6.905810860000000E-002  5.967605693771595E-003
 
          12 0
 s           8   1.000000    
   337.005012218500       3.594625283089743E-002
   53.3105310515000       6.201140956804983E-002
   12.2082534814000       0.111908019236150     
   3.41882690980000       0.170631852358145     
   1.10879012580000       0.211371367808181     
  0.478717798300000       0.124883980710415     
  0.212137087700000       8.753459958157721E-002
  6.905810860000000E-002  4.791460494600960E-003
 
          13 0
 s           8   1.000000    
   337.005012218500       3.569927426468159E-002
   53.3105310515000       6.179124990670687E-002
   12.2082534814000       0.111238209844361     
   3.41882690980000       0.169845170364449     
   1.10879012580000       0.210050951094722     
  0.478717798300000       0.124631113033957     
  0.212137087700000       8.735763601917872E-002
  6.905810860000000E-002  5.273055719440340E-003
 
          14 0
 s           6   1.000000    
   2.69507309610000       -1.15454479105029     
   2.24947021280000       0.953305811676482     
  0.611851695800000       0.239960255894843     
  0.303726665600000       9.167591579550959E-002
  0.171628270400000       3.190795501521764E-002
  7.154913430000000E-002  7.274790430997764E-003
 p           6   1.000000    
   27.5476401720000       0.975056627154126     
   7.12656627820000        1.22997370113559     
   2.35805520400000       0.941267341029071     
  0.845047262300000       0.489712491009492     
  0.301063057900000       0.126559874658165     
  9.457452580000000E-002  8.910090396334646E-003
 
          15 0
 s           6   1.000000    
   2.69507309610000       -1.14368226044644     
   2.24947021280000       0.944205633878607     
  0.611851695800000       0.237661907622534     
  0.303726665600000       9.080009396304006E-002
  0.171628270400000       3.159594308546020E-002
  7.154913430000000E-002  8.592499933696547E-003
 p           6   1.000000    
   27.5476401720000       0.955369905333684     
   7.12656627820000        1.21439344647347     
   2.35805520400000       0.923239119886964     
  0.845047262300000       0.482817359076559     
  0.301063057900000       0.125196195904691     
  9.457452580000000E-002  1.069277955088845E-002
 
          16 0
 s           6   1.000000    
   2.20862762910000       -1.43470718656975     
   1.91795894900000        1.10000469231357     
  0.497153036800000       0.287899177529519     
  0.192182467300000       0.144516630896753     
  0.150531183200000      -8.628125839867778E-002
  7.818867730000000E-002  2.402671568772162E-002
 p           6   1.000000    
   24.5973356357000       0.543567811504608     
   6.48816086650000       0.764301772857982     
   2.22635867440000       0.680251867804432     
  0.776897003100000       0.456980249567770     
  0.283424721400000       0.124390800211143     
  9.862825729999999E-002  9.861496869504740E-003
 
          17 0
 s           6   1.000000    
   2.20862762910000       -1.31039264879600     
   1.91795894900000        1.00428086061406     
  0.497153036800000       0.262835220808714     
  0.192182467300000       0.131945593066041     
  0.150531183200000      -6.233307042433220E-002
  7.818867730000000E-002  2.193409518374371E-002
 p           6   1.000000    
   24.5973356357000       0.510778921831689     
   6.48816086650000       0.734703349342564     
   2.22635867440000       0.652743735144399     
  0.776897003100000       0.440003663636128     
  0.283424721400000       0.119784914385817     
  9.862825729999999E-002  1.436412355086426E-002
 
          18 0
 s           6   1.000000    
   2.20862762910000       -1.36369650953203     
   1.91795894900000        1.04532457756313     
  0.497153036800000       0.273581923800831     
  0.192182467300000       0.137335716070866     
  0.150531183200000      -7.256319524738077E-002
  7.818867730000000E-002  2.283134851407332E-002
 p           6   1.000000    
   24.5973356357000       0.525359118701273     
   6.48816086650000       0.747950178389665     
   2.22635867440000       0.665045671867078     
  0.776897003100000       0.447607367972316     
  0.283424721400000       0.121847988555424     
  9.862825729999999E-002  1.238829974439222E-002
 
          19 0
 s           6   1.000000    
   2.20862762910000       -1.36594527053724     
   1.91795894900000        1.04705614404473     
  0.497153036800000       0.274035310216298     
  0.192182467300000       0.137563116060100     
  0.150531183200000      -7.299603513404121E-002
  7.818867730000000E-002  2.286920228238563E-002
 p           6   1.000000    
   24.5973356357000       0.525956528744785     
   6.48816086650000       0.748490103961657     
   2.22635867440000       0.665547396036280     
  0.776897003100000       0.447917093653064     
  0.283424721400000       0.121932020614730     
  9.862825729999999E-002  1.230646171745003E-002
 
          20 0
 s           8   1.000000    
   337.005012218500       3.789176808286110E-002
   53.3105310515000       6.372430378031158E-002
   12.2082534814000       0.117174004886768     
   3.41882690980000       0.176788740860955     
   1.10879012580000       0.221758957783126     
  0.478717798300000       0.126813102416062     
  0.212137087700000       8.888455256740559E-002
  6.905810860000000E-002  9.444303335518304E-004
 
          21 0
 s           8   1.000000    
   337.005012218500       3.511055690247380E-002
   53.3105310515000       6.126407679271018E-002
   12.2082534814000       0.109640453048220     
   3.41882690980000       0.167965509445488     
   1.10879012580000       0.206901976508852     
  0.478717798300000       0.124021352908221     
  0.212137087700000       8.693089864507543E-002
  6.905810860000000E-002  6.415068076708205E-003
 
          22 0
 s           8   1.000000    
   337.005012218500       3.532315955227926E-002
   53.3105310515000       6.145483865987582E-002
   12.2082534814000       0.110217633726252     
   3.41882690980000       0.168645029087869     
   1.10879012580000       0.208039407457827     
  0.478717798300000       0.124242685089510     
  0.212137087700000       8.708579853620803E-002
  6.905810860000000E-002  6.003615844306667E-003
 
          23 0
 s           8   1.000000    
   337.005012218500       3.533503297999180E-002
   53.3105310515000       6.146547955787525E-002
   12.2082534814000       0.110249861955701     
   3.41882690980000       0.168682954971826     
   1.10879012580000       0.208102922498503     
  0.478717798300000       0.124255008522640     
  0.212137087700000       8.709442306470619E-002
  6.905810860000000E-002  5.980605169866694E-003
 
          24 0
 s           8   1.000000    
   337.005012218500       3.594601600380914E-002
   53.3105310515000       6.201119874336997E-002
   12.2082534814000       0.111907377095257     
   3.41882690980000       0.170631098546282     
   1.10879012580000       0.211370101847171     
  0.478717798300000       0.124883739076365     
  0.212137087700000       8.753443048091854E-002
  6.905810860000000E-002  4.791923009209813E-003
 
          25 0
 s           8   1.000000    
   337.005012218500       3.569902870410256E-002
   53.3105310515000       6.179103071495938E-002
   12.2082534814000       0.111237543738084     
   3.41882690980000       0.169844387644433     
   1.10879012580000       0.210049638069338     
  0.478717798300000       0.124630860747818     
  0.212137087700000       8.735745946123399E-002
  6.905810860000000E-002  5.273533809782498E-003
 
          26 0
 s           6   1.000000    
   2.69507309610000       -1.15454440279966     
   2.24947021280000       0.953305486389659     
  0.611851695800000       0.239960173738600     
  0.303726665600000       9.167588448902694E-002
  0.171628270400000       3.190794386083566E-002
  7.154913430000000E-002  7.274837809741005E-003
 p           6   1.000000    
   27.5476401720000       0.975055927506071     
   7.12656627820000        1.22997315156849     
   2.35805520400000       0.941266700759498     
  0.845047262300000       0.489712247301890     
  0.301063057900000       0.126559826727517     
  9.457452580000000E-002  8.910154629732799E-003
 
          27 0
 s           6   1.000000    
   2.69507309610000       -1.14367825467873     
   2.24947021280000       0.944202278283467     
  0.611851695800000       0.237661060146422     
  0.303726665600000       9.079977101433212E-002
  0.171628270400000       3.159582804946234E-002
  7.154913430000000E-002  8.592982997297695E-003
 p           6   1.000000    
   27.5476401720000       0.955362606292517     
   7.12656627820000        1.21438762777900     
   2.35805520400000       0.923232431302136     
  0.845047262300000       0.482814789004784     
  0.301063057900000       0.125195684877798     
  9.457452580000000E-002  1.069343155692511E-002
 
          28 0
 s           6   1.000000    
   2.20862762910000       -1.43469804579022     
   1.91795894900000        1.09999765350228     
  0.497153036800000       0.287897334507010     
  0.192182467300000       0.144515706520607     
  0.150531183200000      -8.627948584209547E-002
  7.818867730000000E-002  2.402656181087649E-002
 p           6   1.000000    
   24.5973356357000       0.543565552295943     
   6.48816086650000       0.764299757841635     
   2.22635867440000       0.680249992414160     
  0.776897003100000       0.456979095483782     
  0.283424721400000       0.124390487135131     
  9.862825729999999E-002  9.861814632374826E-003
 
          29 0
 s           6   1.000000    
   2.20862762910000       -1.31038144442504     
   1.91795894900000        1.00427223345069     
  0.497153036800000       0.262832961914719     
  0.192182467300000       0.131944460090061     
  0.150531183200000      -6.233092602860454E-002
  7.818867730000000E-002  2.193390658667549E-002
 p           6   1.000000    
   24.5973356357000       0.510775770501208     
   6.48816086650000       0.734700472012642     
   2.22635867440000       0.652741064603160     
  0.776897003100000       0.440002011084809     
  0.283424721400000       0.119784465986503     
  9.862825729999999E-002  1.436454621837261E-002
 
          30 0
 s           6   1.000000    
   2.20862762910000       -1.36369748819617     
   1.91795894900000        1.04532533114288     
  0.497153036800000       0.273582121115115     
  0.192182467300000       0.137335815035614     
  0.150531183200000      -7.256338359766396E-002
  7.818867730000000E-002  2.283136498807516E-002
 p           6   1.000000    
   24.5973356357000       0.525359378999615     
   6.48816086650000       0.747950413691110     
   2.22635867440000       0.665045890514758     
  0.776897003100000       0.447607502955225     
  0.283424721400000       0.121848025177879     
  9.862825729999999E-002  1.238826410199588E-002
 
          31 0
 s           6   1.000000    
   2.20862762910000       -1.36592833332233     
   1.91795894900000        1.04704310222524     
  0.497153036800000       0.274031895398401     
  0.192182467300000       0.137561403328050     
  0.150531183200000      -7.299277468821969E-002
  7.818867730000000E-002  2.286891717517783E-002
 p           6   1.000000    
   24.5973356357000       0.525952034401878     
   6.48816086650000       0.748486042930403     
   2.22635867440000       0.665543622241857     
  0.776897003100000       0.447914764120171     
  0.283424721400000       0.121931388587538     
  9.862825729999999E-002  1.230707765219406E-002
 
          32 0
 s           8   1.000000    
   337.005012218500       3.789167427291569E-002
   53.3105310515000       6.372422212597366E-002
   12.2082534814000       0.117173751420358     
   3.41882690980000       0.176788445743442     
   1.10879012580000       0.221758457509820     
  0.478717798300000       0.126813012156282     
  0.212137087700000       8.888448941022810E-002
  6.905810860000000E-002  9.446181780566171E-004
 
          33 0
 s           8   1.000000    
   337.005012218500       3.532467478347780E-002
   53.3105310515000       6.145619667676753E-002
   12.2082534814000       0.110221746578117     
   3.41882690980000       0.168649869152593     
   1.10879012580000       0.208047512997909     
  0.478717798300000       0.124244257969779     
  0.212137087700000       8.708689931346368E-002
  6.905810860000000E-002  6.000679518181984E-003
 
          34 0
 s           8   1.000000    
   337.005012218500       3.511023604601774E-002
   53.3105310515000       6.126378857161167E-002
   12.2082534814000       0.109639581819476     
   3.41882690980000       0.167964483314129     
   1.10879012580000       0.206900259707559     
  0.478717798300000       0.124021017917986     
  0.212137087700000       8.693066419983336E-002
  6.905810860000000E-002  6.415688218122725E-003
 
          35 0
 s           8   1.000000    
   337.005012218500       3.533226494058060E-002
   53.3105310515000       6.146299897781433E-002
   12.2082534814000       0.110242348681529     
   3.41882690980000       0.168674113578056     
   1.10879012580000       0.208088115383004     
  0.478717798300000       0.124252135929660     
  0.212137087700000       8.709241268715828E-002
  6.905810860000000E-002  5.985969926027145E-003
 
          36 0
 s           8   1.000000    
   337.005012218500       3.594596128905051E-002
   53.3105310515000       6.201115003593499E-002
   12.2082534814000       0.111907228739792     
   3.41882690980000       0.170630924391082     
   1.10879012580000       0.211369809368961     
  0.478717798300000       0.124883683250812     
  0.212137087700000       8.753439141300620E-002
  6.905810860000000E-002  4.792029864929151E-003
 
          37 0
 s           8   1.000000    
   337.005012218500       3.569857786702103E-002
   53.3105310515000       6.179062828822190E-002
   12.2082534814000       0.111236320799161     
   3.41882690980000       0.169842950606324     
   1.10879012580000       0.210047227418676     
  0.478717798300000       0.124630397558454     
  0.212137087700000       8.735713530642968E-002
  6.905810860000000E-002  5.274411556196484E-003
 
          38 0
 s           6   1.000000    
   2.69507309610000       -1.15454445909164     
   2.24947021280000       0.953305533552591     
  0.611851695800000       0.239960185650332     
  0.303726665600000       9.167588902811494E-002
  0.171628270400000       3.190794547809563E-002
  7.154913430000000E-002  7.274830940357108E-003
 p           6   1.000000    
   27.5476401720000       0.975056028947192     
   7.12656627820000        1.22997323124957     
   2.35805520400000       0.941266793591407     
  0.845047262300000       0.489712282636765     
  0.301063057900000       0.126559833676925     
  9.457452580000000E-002  8.910145316614415E-003
 
          39 0
 s           6   1.000000    
   2.69507309610000       -1.14368516631779     
   2.24947021280000       0.944208068100703     
  0.611851695800000       0.237662522400246     
  0.303726665600000       9.080032823709576E-002
  0.171628270400000       3.159602653509559E-002
  7.154913430000000E-002  8.592149507506069E-003
 p           6   1.000000    
   27.5476401720000       0.955375200200371     
   7.12656627820000        1.21439766744872     
   2.35805520400000       0.923243971914714     
  0.845047262300000       0.482819223450530     
  0.301063057900000       0.125196566611099     
  9.457452580000000E-002  1.069230656895594E-002
 
          40 0
 s           6   1.000000    
   2.20862762910000       -1.43471698087799     
   1.91795894900000        1.10001223437141     
  0.497153036800000       0.287901152320687     
  0.192182467300000       0.144517621362055     
  0.150531183200000      -8.628315768781607E-002
  7.818867730000000E-002  2.402688056613927E-002
 p           6   1.000000    
   24.5973356357000       0.543570232214075     
   6.48816086650000       0.764303931915022     
   2.22635867440000       0.680253877254849     
  0.776897003100000       0.456981486149608     
  0.283424721400000       0.124391135666888     
  9.862825729999999E-002  9.861156389977276E-003
 
          41 0
 s           6   1.000000    
   2.20862762910000       -1.31037218344466     
   1.91795894900000        1.00426510266303     
  0.497153036800000       0.262831094824375     
  0.192182467300000       0.131943523628005     
  0.150531183200000      -6.232915357874352E-002
  7.818867730000000E-002  2.193375070164259E-002
 p           6   1.000000    
   24.5973356357000       0.510773165738778     
   6.48816086650000       0.734698093723451     
   2.22635867440000       0.652738857237960     
  0.776897003100000       0.440000645149748     
  0.283424721400000       0.119784095356951     
  9.862825729999999E-002  1.436489557684948E-002
 
          42 0
 s           6   1.000000    
   2.20862762910000       -1.36368903789362     
   1.91795894900000        1.04531882433767     
  0.497153036800000       0.273580417399484     
  0.192182467300000       0.137334960521766     
  0.150531183200000      -7.256175728258084E-002
  7.818867730000000E-002  2.283122274285166E-002
 p           6   1.000000    
   24.5973356357000       0.525357131437638     
   6.48816086650000       0.747948381964939     
   2.22635867440000       0.665044002586797     
  0.776897003100000       0.447606337436115     
  0.283424721400000       0.121847708958799     
  9.862825729999999E-002  1.238857185800861E-002
 
          43 0
 s           6   1.000000    
   2.20862762910000       -1.36593891490165     
   1.91795894900000        1.04705125014377     
  0.497153036800000       0.274034028816827     
  0.192182467300000       0.137562473362888     
  0.150531183200000      -7.299481166151947E-002
  7.818867730000000E-002  2.286909529681964E-002
 p           6   1.000000    
   24.5973356357000       0.525954842266315     
   6.48816086650000       0.748488580082616     
   2.22635867440000       0.665545979941071     
  0.776897003100000       0.447916219509107     
  0.283424721400000       0.121931783450127     
  9.862825729999999E-002  1.230669284418266E-002
 
          44 0
 s           8   1.000000    
   337.005012218500       3.789178332343011E-002
   53.3105310515000       6.372431704604523E-002
   12.2082534814000       0.117174046065472     
   3.41882690980000       0.176788788806375     
   1.10879012580000       0.221759039058617     
  0.478717798300000       0.126813117079838     
  0.212137087700000       8.888456282804082E-002
  6.905810860000000E-002  9.443998159006430E-004
 
          45 0
 s           8   1.000000    
   337.005012218500       3.533751513318775E-002
   53.3105310515000       6.146770387825819E-002
   12.2082534814000       0.110256599220372     
   3.41882690980000       0.168690883099298     
   1.10879012580000       0.208116200278422     
  0.478717798300000       0.124257584247047     
  0.212137087700000       8.709622567918615E-002
  6.905810860000000E-002  5.975794335349061E-003
 
          46 0
 s           8   1.000000    
   337.005012218500       3.531732975958052E-002
   53.3105310515000       6.144961353751029E-002
   12.2082534814000       0.110201809590847     
   3.41882690980000       0.168626406743352     
   1.10879012580000       0.208008221578134     
  0.478717798300000       0.124236632890122     
  0.212137087700000       8.708156291508094E-002
  6.905810860000000E-002  6.014912730443442E-003
 
          47 0
 s           8   1.000000    
   337.005012218500       3.511027002373890E-002
   53.3105310515000       6.126381909339436E-002
   12.2082534814000       0.109639674079968     
   3.41882690980000       0.167964591978401     
   1.10879012580000       0.206900441511615     
  0.478717798300000       0.124021053392567     