1
 energy: -1778.306204395300 gnorm: 0.000000000000 xtb: 6.7.1 (edcfbbe)
ZN           0.00000000000000        0.00000000000000        0.00000000000000
