6
 energy: -115.725030059400 gnorm: 0.000436031481 xtb: 6.7.1 (edcfbbe)
H           -1.11152323515200       -0.76552253662561        0.67887621601708
C           -0.70722994612087       -0.01442530630201       -0.00490366352538
H           -1.11169167997475       -0.19595217622927       -1.00422150240255
H           -1.02927398283086        0.97078763124108        0.32850189728842
O            0.71083208339100       -0.00284510368206       -0.00113236013476
H            1.03188587068748       -0.85704326840214       -0.29012056724282
