[Molden Format]
[Title]
[Atoms] AU
Zn     1    30 -0.52031532117443E+00  0.26007807477713E+00 -0.65112472426026E+00
H      2     1  0.19090131575113E+01 -0.16430263441990E+01  0.50859915798368E+01
C      3     6  0.30067562325789E+01 -0.23716627530942E+01  0.34822121421511E+01
H      4     1  0.49393036974245E+01 -0.28284362457098E+01  0.40840424379850E+01
H      5     1  0.20727665506310E+01 -0.40654419217528E+01  0.27492887575658E+01
O      6     8  0.30700216509171E+01 -0.55650529354207E+00  0.14314925900137E+01
H      7     1  0.36248944857651E+01  0.10647792807054E+01  0.20943615455648E+01
H      8     1  0.41765057669371E+01  0.86834385136866E+00 -0.67359602482015E+01
C      9     6  0.37005462831829E+01  0.95485979688915E+00 -0.47189431087269E+01
H     10     1  0.51515640890477E+01 -0.98171076230928E-02 -0.35898522951695E+01
H     11     1  0.35542352121331E+01  0.29315394311868E+01 -0.41232148326025E+01
O     12     8  0.12364678978206E+01 -0.15905338001981E+00 -0.42967978433313E+01
H     13     1  0.12956562134371E+01 -0.19452301718579E+01 -0.47328842220707E+01
H     14     1 -0.11841622099256E+01  0.21923339360051E+01  0.45523260248413E+01
H     15     1 -0.97949150590062E+00  0.52651217489298E+01  0.59023616358862E+01
H     16     1 -0.14139379615282E+00  0.98103997194363E+01 -0.18954114200581E+01
H     17     1 -0.73207185515677E+00  0.51148183104717E+01 -0.41278732150388E+01
H     18     1  0.18114429952481E+01  0.36106187775374E+01  0.51605317648381E+01
C     19     6 -0.13549792665168E+00  0.39867524275998E+01  0.45069438394411E+01
C     20     6 -0.20231145671499E+00  0.79566022010781E+01 -0.10154255904719E+01
C     21     6 -0.21717182726686E+00  0.51900318048434E+01  0.19516762539784E+01
C     22     6 -0.47259155740220E+00  0.56312952013171E+01 -0.21589713716644E+01
N     23     7 -0.42917812633335E-01  0.76674434164929E+01  0.15612847724961E+01
N     24     7 -0.47993556172434E+00  0.38369002746055E+01 -0.24974023426011E+00
H     25     1  0.23169411450068E+01 -0.49815116344895E+01 -0.21828450170948E+01
H     26     1 -0.11929139089326E+00 -0.54263789085024E+01 -0.45118927672484E+01
H     27     1 -0.57295120278143E+01 -0.66644457790725E+01  0.33801472477224E+01
H     28     1 -0.50348665549462E+01 -0.15376424862187E+01  0.25978938322730E+01
H     29     1  0.81218576806958E+00 -0.79541865076527E+01 -0.25480581863228E+01
C     30     6  0.49083895943578E+00 -0.59089801555034E+01 -0.25712183657056E+01
C     31     6 -0.44116222054421E+01 -0.57106715541759E+01  0.21288894094376E+01
C     32     6 -0.14846441570565E+01 -0.52830146005730E+01 -0.65115000879401E+00
C     33     6 -0.40827878677972E+01 -0.31536192547960E+01  0.17642553656366E+01
N     34     7 -0.27760403989879E+01 -0.70372145263446E+01  0.60569225325144E+00
N     35     7 -0.22002693111787E+01 -0.28633561521366E+01 -0.35871704716329E-01
[GTO]
           1 0
 s           5   1.000000    
   1.82046632240000       0.235977405838172     
   1.13274582070000      -0.429245093720089     
  0.315046004900000       8.695803455312314E-003
  0.148617277200000       0.163424210449748     
  5.129314220000000E-002  1.491095199437356E-002
 p           3   1.000000    
   1.22375302100000      -0.191503681187363     
  0.183640111800000       0.153071654420872     
  4.740596480000000E-002  6.630485642957243E-003
 
           2 0
 s           8   1.000000    
   337.005012218500       3.415805092508622E-002
   53.3105310515000       6.040417603874688E-002
   12.2082534814000       0.107052033883341     
   3.41882690980000       0.164911287211099     
   1.10879012580000       0.201802679369548     
  0.478717798300000       0.123014317534869     
  0.212137087700000       8.622609870881884E-002
  6.905810860000000E-002  8.245354141295467E-003
 
           3 0
 s           6   1.000000    
   2.20862762910000       -1.30865019621214     
   1.91795894900000        1.00293920432454     
  0.497153036800000       0.262483928148397     
  0.192182467300000       0.131769397906364     
  0.150531183200000      -6.199961365021370E-002
  7.818867730000000E-002  2.190476544878870E-002
 p           6   1.000000    
   24.5973356357000       0.510288393872313     
   6.48816086650000       0.734255399080985     
   2.22635867440000       0.652327986167226     
  0.776897003100000       0.439746385241707     
  0.283424721400000       0.119715104976132     
  9.862825729999999E-002  1.442989248586957E-002
 
           4 0
 s           8   1.000000    
   337.005012218500       3.419265493989498E-002
   53.3105310515000       6.043556404917875E-002
   12.2082534814000       0.107146141078846     
   3.41882690980000       0.165022523184935     
   1.10879012580000       0.201988028981626     
  0.478717798300000       0.123051338418903     
  0.212137087700000       8.625200939744249E-002
  6.905810860000000E-002  8.179231411805573E-003
 
           5 0
 s           8   1.000000    
   337.005012218500       3.440646116300094E-002
   53.3105310515000       6.062925363433699E-002
   12.2082534814000       0.107727478439798     
   3.41882690980000       0.165709350838282     
   1.10879012580000       0.203133082458788     
  0.478717798300000       0.123279354441101     
  0.212137087700000       8.641159532638237E-002
  6.905810860000000E-002  7.770067114121478E-003
 
           6 0
 s           6   1.000000    
   3.48359494310000       -1.31958083151473     
   2.85986576440000        1.12106663422951     
  0.740681029000000       0.296704788669746     
  0.344926919200000       8.183795608316488E-002
  0.261978532900000       3.968493417207945E-002
  9.461635039999999E-002  1.126284654528851E-002
 p           6   1.000000    
   37.6414713255000        1.49797516249438     
   9.71308856170000        1.81926701868682     
   3.13717714760000        1.32946468512153     
   1.12138051620000       0.642769041422579     
  0.398077926500000       0.184495261058616     
  0.123047771000000       1.704743748876698E-002
 
           7 0
 s           8   1.000000    
   337.005012218500       3.681800826712283E-002
   53.3105310515000       6.278368269578662E-002
   12.2082534814000       0.114269912882394     
   3.41882690980000       0.173399559701465     
   1.10879012580000       0.216028930024869     
  0.478717798300000       0.125762355909157     
  0.212137087700000       8.814928792842568E-002
  6.905810860000000E-002  3.079538714780725E-003
 
           8 0
 s           8   1.000000    
   337.005012218500       3.417210540308802E-002
   53.3105310515000       6.041692566590356E-002
   12.2082534814000       0.107090256319123     
   3.41882690980000       0.164956468386354     
   1.10879012580000       0.201877960276632     
  0.478717798300000       0.123029357551041     
  0.212137087700000       8.623662512932397E-002
  6.905810860000000E-002  8.218501620096748E-003
 
           9 0
 s           6   1.000000    
   2.20862762910000       -1.30772096912411     
   1.91795894900000        1.00222371725082     
  0.497153036800000       0.262296588560452     
  0.192182467300000       0.131675435413794     
  0.150531183200000      -6.182181008925187E-002
  7.818867730000000E-002  2.188912430221083E-002
 p           6   1.000000    
   24.5973356357000       0.510026433112713     
   6.48816086650000       0.734016116702029     
   2.22635867440000       0.652105911295857     
  0.776897003100000       0.439608950373899     
  0.283424721400000       0.119677813583447     
  9.862825729999999E-002  1.446499717055669E-002
 
          10 0
 s           8   1.000000    
   337.005012218500       3.412404580718397E-002
   53.3105310515000       6.037332048933456E-002
   12.2082534814000       0.106959550229696     
   3.41882690980000       0.164801956230130     
   1.10879012580000       0.201620530729933     
  0.478717798300000       0.122977905705001     
  0.212137087700000       8.620061424615366E-002
  6.905810860000000E-002  8.310305547801041E-003
 
          11 0
 s           8   1.000000    
   337.005012218500       3.430890835981321E-002
   53.3105310515000       6.054093202312916E-002
   12.2082534814000       0.107462258495436     
   3.41882690980000       0.165396072367440     
   1.10879012580000       0.202610665623212     
  0.478717798300000       0.123175472845129     
  0.212137087700000       8.633888996122460E-002
  6.905810860000000E-002  7.956886934468449E-003
 
          12 0
 s           6   1.000000    
   3.48359494310000       -1.32003503907922     
   2.85986576440000        1.12149597481527     
  0.740681029000000       0.296854355516206     
  0.344926919200000       8.186897702458883E-002
  0.261978532900000       3.970065816067553E-002
  9.461635039999999E-002  1.118620007770822E-002
 p           6   1.000000    
   37.6414713255000        1.49957834328388     
   9.71308856170000        1.82099398878917     
   3.13717714760000        1.33125080555684     
   1.12138051620000       0.643419519303278     
  0.398077926500000       0.184590788535752     
  0.123047771000000       1.690210156050220E-002
 
          13 0
 s           8   1.000000    
   337.005012218500       3.677782227406114E-002
   53.3105310515000       6.274824992427322E-002
   12.2082534814000       0.114161115332123     
   3.41882690980000       0.173272287918199     
   1.10879012580000       0.215814333880046     
  0.478717798300000       0.125722356494903     
  0.212137087700000       8.812129705509364E-002
  6.905810860000000E-002  3.158872579399875E-003
 
          14 0
 s           8   1.000000    
   337.005012218500       3.415134718619275E-002
   53.3105310515000       6.039809404797201E-002
   12.2082534814000       0.107033802144199     
   3.41882690980000       0.164889735380866     
   1.10879012580000       0.201766771288837     
  0.478717798300000       0.123007141822362     
  0.212137087700000       8.622107646623409E-002
  6.905810860000000E-002  8.258160715573852E-003
 
          15 0
 s           8   1.000000    
   337.005012218500       3.445673547339018E-002
   53.3105310515000       6.067473601913315E-002
   12.2082534814000       0.107864144181517     
   3.41882690980000       0.165870735633812     
   1.10879012580000       0.203402290359643     
  0.478717798300000       0.123332788673522     
  0.212137087700000       8.644899309159948E-002
  6.905810860000000E-002  7.673702190387232E-003
 
          16 0
 s           8   1.000000    
   337.005012218500       3.486210824393143E-002
   53.3105310515000       6.104060565731056E-002
   12.2082534814000       0.108965693827244     
   3.41882690980000       0.167170396707482     
   1.10879012580000       0.205572418765572     
  0.478717798300000       0.123761098884531     
  0.212137087700000       8.674875674171446E-002
  6.905810860000000E-002  6.894529798238297E-003
 
          17 0
 s           8   1.000000    
   337.005012218500       3.472700283519509E-002
   53.3105310515000       6.091883768417131E-002
   12.2082534814000       0.108598644387267     
   3.41882690980000       0.166737558136059     
   1.10879012580000       0.204849253404565     
  0.478717798300000       0.123618852966573     
  0.212137087700000       8.664920312868925E-002
  6.905810860000000E-002  7.154646395895737E-003
 
          18 0
 s           8   1.000000    
   337.005012218500       3.398122737639264E-002
   53.3105310515000       6.024361358359760E-002
   12.2082534814000       0.106571071215478     
   3.41882690980000       0.164342557969462     
   1.10879012580000       0.200855448325964     
  0.478717798300000       0.122824637251115     
  0.212137087700000       8.609334189020079E-002
  6.905810860000000E-002  8.582804796603047E-003
 
          19 0
 s           6   1.000000    
   2.20862762910000       -1.28179811423445     
   1.91795894900000       0.982263786091633     
  0.497153036800000       0.257070383542881     
  0.192182467300000       0.129054163232335     
  0.150531183200000      -5.686844376343592E-002
  7.818867730000000E-002  2.145278423267892E-002
 p           6   1.000000    
   24.5973356357000       0.502613859612374     
   6.48816086650000       0.727228180301190     
   2.22635867440000       0.645807970961063     
  0.776897003100000       0.435709065266077     
  0.283424721400000       0.118619598832005     
  9.862825729999999E-002  1.545306153360890E-002
 
          20 0
 s           6   1.000000    
   2.20862762910000       -1.34675202476765     
   1.91795894900000        1.03227725167659     
  0.497153036800000       0.270165666479475     
  0.192182467300000       0.135622259779900     
  0.150531183200000      -6.930501898326559E-002
  7.818867730000000E-002  2.254612132663320E-002
 p           6   1.000000    
   24.5973356357000       0.520812258971337     
   6.48816086650000       0.743833386794945     
   2.22635867440000       0.661220973120728     
  0.776897003100000       0.445245284984902     
  0.283424721400000       0.121207117791644     
  9.862825729999999E-002  1.300886630568001E-002
 
          21 0
 s           6   1.000000    
   2.20862762910000       -1.41331971795565     
   1.91795894900000        1.08353549848033     
  0.497153036800000       0.283586933286183     
  0.192182467300000       0.142353802629336     
  0.150531183200000      -8.213861994427517E-002
  7.818867730000000E-002  2.366667989938322E-002
 p           6   1.000000    
   24.5973356357000       0.538223351842872     
   6.48816086650000       0.759525260085604     
   2.22635867440000       0.675807414377482     
  0.776897003100000       0.454243872229564     
  0.283424721400000       0.123648470289054     
  9.862825729999999E-002  1.061020465745207E-002
 
          22 0
 s           6   1.000000    
   2.20862762910000       -1.33750237558013     
   1.91795894900000        1.02515504293282     
  0.497153036800000       0.268300818647880     
  0.192182467300000       0.134686926128271     
  0.150531183200000      -6.752888486185872E-002
  7.818867730000000E-002  2.239042320469357E-002
 p           6   1.000000    
   24.5973356357000       0.518296022480270     
   6.48816086650000       0.741549547117029     
   2.22635867440000       0.659099789465752     
  0.776897003100000       0.443934511185054     
  0.283424721400000       0.120851475633309     
  9.862825729999999E-002  1.335055792978395E-002
 
          23 0
 s           6   1.000000    
   2.69507309610000       -1.13789303983251     
   2.24947021280000       0.939356261452301     
  0.611851695800000       0.236437180792045     
  0.303726665600000       9.033338242101398E-002
  0.171628270400000       3.142970908924731E-002
  7.154913430000000E-002  9.288464869289838E-003
 p           6   1.000000    
   27.5476401720000       0.944793463369234     
   7.12656627820000        1.20593045401655     
   2.35805520400000       0.913543906196426     
  0.845047262300000       0.479083060237334     
  0.301063057900000       0.124451639481445     
  9.457452580000000E-002  1.163084592529656E-002
 
          24 0
 s           6   1.000000    
   2.69507309610000       -1.13998979471703     
   2.24947021280000       0.941112572484231     
  0.611851695800000       0.236880740860806     
  0.303726665600000       9.050241242476563E-002
  0.171628270400000       3.148991189334390E-002
  7.154913430000000E-002  9.036897988959094E-003
 p           6   1.000000    
   27.5476401720000       0.948630349207817     
   7.12656627820000        1.20900788127799     
   2.35805520400000       0.917061868099528     
  0.845047262300000       0.480440121513277     
  0.301063057900000       0.124722680960246     
  9.457452580000000E-002  1.129207538479079E-002
 
          25 0
 s           8   1.000000    
   337.005012218500       3.403895920220341E-002
   53.3105310515000       6.029606791577920E-002
   12.2082534814000       0.106728117868767     
   3.41882690980000       0.164528303943698     
   1.10879012580000       0.201164733841281     
  0.478717798300000       0.122886659763063     
  0.212137087700000       8.613675145017650E-002
  6.905810860000000E-002  8.472708286640646E-003
 
          26 0
 s           8   1.000000    
   337.005012218500       3.389243923305200E-002
   53.3105310515000       6.016288218624977E-002
   12.2082534814000       0.106329513982644     
   3.41882690980000       0.164056779737041     
   1.10879012580000       0.200379747192264     
  0.478717798300000       0.122729074738634     
  0.212137087700000       8.602645742069240E-002
  6.905810860000000E-002  8.751977488681397E-003
 
          27 0
 s           8   1.000000    
   337.005012218500       3.487132823060605E-002
   53.3105310515000       6.104890917774625E-002
   12.2082534814000       0.108990739327896     
   3.41882690980000       0.167199923107777     
   1.10879012580000       0.205621765654119     
  0.478717798300000       0.123770787700470     
  0.212137087700000       8.675553762275329E-002
  6.905810860000000E-002  6.876762989545952E-003
 
          28 0
 s           8   1.000000    
   337.005012218500       3.467863163642278E-002
   53.3105310515000       6.087519982865752E-002
   12.2082534814000       0.108467211166111     
   3.41882690980000       0.166582512536894     
   1.10879012580000       0.204590314902095     
  0.478717798300000       0.123567802426367     
  0.212137087700000       8.661347421416525E-002
  6.905810860000000E-002  7.247670353669435E-003
 
          29 0
 s           8   1.000000    
   337.005012218500       3.448218544109486E-002
   53.3105310515000       6.069775122267036E-002
   12.2082534814000       0.107933323078320     
   3.41882690980000       0.165952415355261     
   1.10879012580000       0.203538563597896     
  0.478717798300000       0.123359811854403     
  0.212137087700000       8.646790614427931E-002
  6.905810860000000E-002  7.624897682217682E-003
 
          30 0
 s           6   1.000000    
   2.20862762910000       -1.28083026011110     
   1.91795894900000       0.981518569692523     
  0.497153036800000       0.256875260103526     
  0.192182467300000       0.128956296334008     
  0.150531183200000      -5.668376067965790E-002
  7.818867730000000E-002  2.143649323334433E-002
 p           6   1.000000    
   24.5973356357000       0.502333148203176     
   6.48816086650000       0.726970481029048     
   2.22635867440000       0.645568943673617     
  0.776897003100000       0.435560965774984     
  0.283424721400000       0.118579411815593     
  9.862825729999999E-002  1.549028069487589E-002
 
          31 0
 s           6   1.000000    
   2.20862762910000       -1.34666252365590     
   1.91795894900000        1.03220833581987     
  0.497153036800000       0.270147621849201     
  0.192182467300000       0.135613209314718     
  0.150531183200000      -6.928782459090785E-002
  7.818867730000000E-002  2.254461476087921E-002
 p           6   1.000000    
   24.5973356357000       0.520788028007905     
   6.48816086650000       0.743811412709097     
   2.22635867440000       0.661200561969002     
  0.776897003100000       0.445232674584807     
  0.283424721400000       0.121203696337005     
  9.862825729999999E-002  1.301216258960362E-002
 
          32 0
 s           6   1.000000    
   2.20862762910000       -1.41357596712245     
   1.91795894900000        1.08373281903698     
  0.497153036800000       0.283638599071998     
  0.192182467300000       0.142379715904823     
  0.150531183200000      -8.218819779557654E-002
  7.818867730000000E-002  2.367099355085678E-002
 p           6   1.000000    
   24.5973356357000       0.538288083152636     
   6.48816086650000       0.759583228081298     
   2.22635867440000       0.675861339654427     
  0.776897003100000       0.454277088977579     
  0.283424721400000       0.123657481569365     
  9.862825729999999E-002  1.060117211253644E-002
 
          33 0
 s           6   1.000000    
   2.20862762910000       -1.33731176746042     
   1.91795894900000        1.02500827556572     
  0.497153036800000       0.268262389737153     
  0.192182467300000       0.134667651700762     
  0.150531183200000      -6.749230198881245E-002
  7.818867730000000E-002  2.238721473518874E-002
 p           6   1.000000    
   24.5973356357000       0.518243913419609     
   6.48816086650000       0.741502208957097     
   2.22635867440000       0.659055827322382     
  0.776897003100000       0.443907339365085     
  0.283424721400000       0.120844103250648     
  9.862825729999999E-002  1.335762114502306E-002
 
          34 0
 s           6   1.000000    
   2.69507309610000       -1.13792228474226     
   2.24947021280000       0.939380757586519     
  0.611851695800000       0.236443367321335     
  0.303726665600000       9.033573996374725E-002
  0.171628270400000       3.143054874691262E-002
  7.154913430000000E-002  9.284959968091261E-003
 p           6   1.000000    
   27.5476401720000       0.944847026671710     
   7.12656627820000        1.20597347132778     
   2.35805520400000       0.913593023211027     
  0.845047262300000       0.479102023095401     
  0.301063057900000       0.124455430474616     
  9.457452580000000E-002  1.162612855917296E-002
 
          35 0
 s           6   1.000000    
   2.69507309610000       -1.14003345022958     
   2.24947021280000       0.941149140348733     
  0.611851695800000       0.236889976185312     
  0.303726665600000       9.050593177375714E-002
  0.171628270400000       3.149116539777194E-002
  7.154913430000000E-002  9.031654231119242E-003
 p           6   1.000000    
   27.5476401720000       0.948710160783228     
   7.12656627820000        1.20907180828407     
   2.35805520400000       0.917135036519644     
  0.845047262300000       0.480468321802144     
  0.301063057900000       0.124728307730644     
  9.457452580000000E-002  1.128501012757373E-002
 
[MO]
Sym=     1a
Ene=   -1.41520586663677     
Spin= Alpha
Occup=     2.00000000
           1 -2.380230695383519E-002
           2 -3.792955119831374E-003
           3  5.834071917563086E-004
           4  2.654803587482976E-003
           5 -2.685690106737109E-002
           6 -0.112206823854903     
           7 -1.038857855042221E-003
           8 -2.762756810453819E-002
           9  3.090203872232811E-002
          10 -2.673141967959482E-002
          11 -2.896927305796026E-002
          12 -0.528650844275694     
          13  3.495820789792702E-004
          14  4.932488106756752E-003
          15 -1.659450090986531E-002
          16 -7.179910505567469E-002
          17 -3.119677088150007E-002
          18 -0.130462076303735     
          19  4.515244233763469E-002
          20  1.941300227849211E-002
          21 -7.706587997398506E-003
          22 -3.628004691711345E-002
          23 -3.387147045186942E-002
          24 -0.600303855439457     
          25 -1.849880487088477E-002
          26 -2.110351029772367E-004
          27  2.701079123213492E-003
          28 -8.253165389636119E-002
          29 -6.914355296802319E-003
          30 -3.191130179182535E-003
          31 -4.908270643833527E-003
          32 -1.114662648000581E-002
          33 -6.847631699286138E-003
          34 -9.620913882021692E-003
          35  1.588389813063641E-003
          36 -4.958346739090602E-003
          37  3.266517106455038E-003
          38 -1.955112065867634E-002
          39  1.147855691479841E-004
          40  4.270713421326564E-003
          41 -3.362274360309291E-003
          42 -2.946030088249525E-002
          43  1.005223182018259E-004
          44 -1.265041010554419E-003
          45  4.134689013201699E-003
          46 -2.114452836059652E-002
          47  1.204980802488738E-004
          48 -1.034215497775010E-003
          49 -7.796560933798280E-003
          50 -3.024544776871968E-002
          51  4.795412050185939E-004
          52  2.333935049393824E-003
          53  1.891290957671034E-003
          54 -4.382586472592104E-002
          55  7.109225860190360E-006
          56 -6.574705871542610E-003
          57 -5.559458690335488E-004
          58 -1.399455599127824E-002
          59 -9.116276239158541E-003
          60 -4.810305958822221E-003
          61 -6.155020024912009E-003
          62 -5.077637855258583E-003
          63 -1.107948669168646E-002
          64  6.765907108510090E-003
          65  2.255715649672077E-003
          66 -3.900615820551728E-003
          67 -1.949482823189807E-002
          68 -3.781075981196564E-003
          69 -1.315032504915908E-003
          70  3.883566304884430E-003
          71 -3.205224615185798E-002
          72  2.641104969826087E-003
          73 -1.856240764245459E-003
          74 -2.387749370033996E-003
          75 -2.078794258384871E-002
          76 -2.288983738980338E-003
          77  4.940123764499611E-003
          78  3.128287271904363E-003
          79 -3.255873409777613E-002
          80  4.334307919797249E-004
          81 -3.198651784151067E-003
          82  2.897736132048955E-004
          83 -4.342692636683798E-002
          84  2.241328430292964E-003
          85  6.343122001572571E-003
          86 -1.457855981138210E-003
Sym=     2a
Ene=   -1.39312683029559     
Spin= Alpha
Occup=     2.00000000
           1 -1.588817172016142E-003
           2 -5.431325909118614E-003
           3  2.406756175639607E-003
           4 -5.882861063155796E-003
           5 -3.187828521121813E-002
           6 -0.139292064335273     
           7 -1.311732936756446E-004
           8 -3.439765066068792E-002
           9  4.054113064187568E-002
          10 -3.166050210603091E-002
          11 -3.144385103510697E-002
          12 -0.616058270473697     
          13 -2.646758795071502E-004
          14  4.150880286888367E-003
          15 -1.548995301725588E-002
          16 -8.189515707848399E-002
          17  2.776045187479831E-002
          18  0.125314804882393     
          19 -4.114233622845632E-002
          20 -1.848230435679322E-002
          21  8.873937594914302E-003
          22  2.201958860139542E-002
          23  2.590785671924052E-002
          24  0.550693227742903     
          25  1.532139161082613E-002
          26 -1.383817531374777E-003
          27 -5.969181387477259E-004
          28  7.317160127786354E-002
          29 -5.913941414150335E-003
          30 -1.701537060412148E-003
          31 -6.352148401823920E-004
          32  3.911987540007082E-003
          33 -5.728449272615492E-003
          34 -2.607315677095637E-003
          35  1.716126269980597E-003
          36 -3.155296952950956E-003
          37  1.712878058806319E-003
          38 -3.149014928437352E-003
          39  7.650047994016833E-006
          40  8.591745497923576E-004
          41 -7.107352331775660E-004
          42 -8.057017345608104E-003
          43  2.398728809737955E-005
          44  8.222391135675702E-004
          45  6.690558955697958E-004
          46 -3.272589520820308E-003
          47 -3.174262358957162E-004
          48 -2.430920163001413E-004
          49  8.815451703975799E-004
          50 -7.144433598196876E-003
          51  1.044560226502724E-004
          52  4.339651563430421E-004
          53  3.997474156587008E-004
          54 -7.837883339524168E-003
          55  3.558489537505073E-004
          56 -4.101960735284747E-004
          57 -7.194253201151466E-004
          58  3.475052647234072E-004
          59  4.523523746806678E-003
          60 -1.311304899817441E-003
          61 -2.296251500461145E-003
          62  3.134715093892437E-004
          63 -2.840106968960931E-004
          64  9.241319755073286E-004
          65 -2.584708391924408E-004
          66  2.568572709139528E-003
          67 -4.884684733605384E-003
          68 -6.596091463850017E-004
          69 -3.085366242798663E-004
          70  9.240237469242297E-004
          71 -6.634689897502843E-003
          72  1.201947328192859E-003
          73 -7.669011639877048E-004
          74 -9.126397170280789E-004
          75 -5.845340672085043E-003
          76 -5.872891070837228E-004
          77  8.428041582757757E-004
          78  1.666744285899046E-003
          79 -7.291126481309065E-003
          80  4.913890456862436E-004
          81 -4.099009070380757E-004
          82  1.193145895378984E-004
          83 -1.067736811917444E-002
          84  1.135815081837331E-003
          85  2.516436764252604E-004
          86  1.017931372580591E-004
Sym=     3a
Ene=   -1.31304180537590     
Spin= Alpha
Occup=     2.00000000
           1 -1.658483123390419E-002
           2  1.258408911612352E-002
           3  2.706922390913419E-002
           4 -3.578900072131483E-003
           5  1.521851938650997E-003
           6  1.602017960100227E-002
           7 -1.606087163544129E-003
           8  4.511369988887756E-004
           9 -4.803548047616700E-003
          10  2.031079955145868E-003
          11 -8.510931349852176E-003
          12  6.509807874638610E-002
          13 -5.519072356392117E-004
          14 -1.238043427603945E-003
          15  9.253086548579836E-004
          16  1.107821777519524E-002
          17  2.824802402657858E-003
          18  1.279975708005916E-002
          19 -4.913240871806989E-003
          20 -3.469066214649615E-003
          21  1.175902059577905E-003
          22  3.289829406567631E-003
          23  4.524299419556677E-003
          24  4.620237460881402E-002
          25  1.034377597481798E-003
          26 -9.240309046537036E-004
          27 -2.360057571897162E-004
          28  1.347007527512438E-003
          29  7.755039694750780E-003
          30  8.168392710546271E-003
          31  1.451246050135014E-002
          32  1.481851582955963E-002
          33  7.861377293053950E-003
          34  3.271984622913683E-002
          35 -7.214464908161850E-004
          36  3.602045644771639E-003
          37 -1.057660473182609E-002
          38  5.958989899112518E-002
          39 -5.574252893545245E-005
          40 -1.156727617906997E-002