[Molden Format]
[Title]
[Atoms] AU
Zn     1    30  0.21340596241584E+00 -0.14289929927544E+01 -0.14745329702748E+00
H      2     1 -0.59453106289984E+01 -0.37118101461271E+01 -0.37635294709444E+01
C      3     6 -0.45083285739551E+01 -0.22794663857327E+01 -0.33537371364786E+01
H      4     1 -0.39792720984447E+01 -0.12434867180943E+01 -0.50676746169895E+01
H      5     1 -0.52063152902441E+01 -0.95395265282470E+00 -0.19301148016808E+01
O      6     8 -0.22884455132626E+01 -0.35192157738385E+01 -0.22510425824735E+01
H      7     1 -0.15662848740833E+01 -0.46783744144723E+01 -0.34791106860611E+01
H      8     1 -0.39770719471658E+01 -0.34912665374672E+01  0.43908114656915E+01
C      9     6 -0.22732632278883E+01 -0.46474018432834E+01  0.41487805008902E+01
H     10     1 -0.17834926439385E+01 -0.56033559426991E+01  0.59184511409141E+01
H     11     1 -0.25718410682139E+01 -0.60426006393835E+01  0.26546654907039E+01
O     12     8 -0.14275250913995E+00 -0.30785880055989E+01  0.33550419922750E+01
H     13     1  0.14932146124437E+00 -0.17735590158108E+01  0.46262684706145E+01
H     14     1  0.66234233616076E+01 -0.30078454328453E+01 -0.36431225370045E+01
C     15     6  0.55150959501648E+01 -0.18273745758749E+01 -0.23539101191194E+01
H     16     1  0.66922870176034E+01 -0.10993223757696E+01 -0.81300059901940E+00
H     17     1  0.46619169042050E+01 -0.24551892654814E+00 -0.33760172893648E+01
O     18     8  0.34174990425262E+01 -0.33298810466026E+01 -0.13337043911657E+01
H     19     1  0.40956075988410E+01 -0.46511507761895E+01 -0.25341886935941E+00
H     20     1  0.22598367625207E+01  0.17033650872040E+01  0.47423701552140E+01
H     21     1 -0.11153095332378E+01  0.20935901783128E+01  0.50727992893140E+01
H     22     1  0.29364542872345E+00  0.77814413636336E+01 -0.28024377167867E+01
H     23     1 -0.92954619915128E-01  0.27968451483071E+01 -0.43289397391685E+01
H     24     1  0.95676103131087E+00  0.46585719569211E+01  0.55728333530631E+01
C     25     6  0.64715354068038E+00  0.29850978940299E+01  0.43946396537057E+01
C     26     6  0.30484704409344E+00  0.60740654463984E+01 -0.16655464544915E+01
C     27     6  0.47117545343674E+00  0.37859338733145E+01  0.16932038982726E+01
C     28     6  0.11269996994681E+00  0.36048249532397E+01 -0.24526665379759E+01
N     29     7  0.52697845722222E+00  0.61644898932876E+01  0.92389642866588E+00
N     30     7  0.21457437999573E+00  0.21115834688924E+01 -0.28789399097976E+00
[GTO]
           1 0
 s           5   1.000000    
   1.82046632240000       0.237063642178727     
   1.13274582070000      -0.431197213475889     
  0.315046004900000       8.751902709459655E-003
  0.148617277200000       0.164168474679896     
  5.129314220000000E-002  1.458189925180504E-002
 p           3   1.000000    
   1.22375302100000      -0.193558484890900     
  0.183640111800000       0.154591388877207     
  4.740596480000000E-002  6.263338128622363E-003
 
           2 0
 s           8   1.000000    
   337.005012218500       3.510937850557252E-002
   53.3105310515000       6.126301824958828E-002
   12.2082534814000       0.109637253318321     
   3.41882690980000       0.167961740804136     
   1.10879012580000       0.206895671277102     
  0.478717798300000       0.124020122588589     
  0.212137087700000       8.693003759731661E-002
  6.905810860000000E-002  6.417345633684302E-003
 
           3 0
 s           6   1.000000    
   2.20862762910000       -1.31553717627421     
   1.91795894900000        1.00824206044901     
  0.497153036800000       0.263872402045458     
  0.192182467300000       0.132465803868903     
  0.150531183200000      -6.331794021569284E-002
  7.818867730000000E-002  2.202069038175063E-002
 p           6   1.000000    
   24.5973356357000       0.512221943733497     
   6.48816086650000       0.736020269527071     
   2.22635867440000       0.653966079512700     
  0.776897003100000       0.440759974359107     
  0.283424721400000       0.119990128989636     
  9.862825729999999E-002  1.417038444453077E-002
 
           4 0
 s           8   1.000000    
   337.005012218500       3.493184161385108E-002
   53.3105310515000       6.110338757079449E-002
   12.2082534814000       0.109155110434104     
   3.41882690980000       0.167393675840572     
   1.10879012580000       0.205945630471861     
  0.478717798300000       0.123834319470214     
  0.212137087700000       8.680000131276711E-002
  6.905810860000000E-002  6.760104510675749E-003
 
           5 0
 s           8   1.000000    
   337.005012218500       3.504433398704524E-002
   53.3105310515000       6.120456884114489E-002
   12.2082534814000       0.109460626475997     
   3.41882690980000       0.167753682939030     
   1.10879012580000       0.206547625347358     
  0.478717798300000       0.123952151773104     
  0.212137087700000       8.688246765668867E-002
  6.905810860000000E-002  6.543009737992692E-003
 
           6 0
 s           6   1.000000    
   3.48359494310000       -1.32195190605693     
   2.85986576440000        1.12330825070773     
  0.740681029000000       0.297485950178762     
  0.344926919200000       8.199991618672275E-002
  0.261978532900000       3.976703403295766E-002
  9.461635039999999E-002  1.086207804845757E-002
 p           6   1.000000    
   37.6414713255000        1.50633229175235     
   9.71308856170000        1.82826520559900     
   3.13717714760000        1.33878244364117     
   1.12138051620000       0.646159159637618     
  0.398077926500000       0.184991268587590     
  0.123047771000000       1.628667503603458E-002
 
           7 0
 s           8   1.000000    
   337.005012218500       3.738815088580762E-002
   53.3105310515000       6.328461537004644E-002
   12.2082534814000       0.115812635258987     
   3.41882690980000       0.175201918929879     
   1.10879012580000       0.219072397768562     
  0.478717798300000       0.126324639917744     
  0.212137087700000       8.854275583655345E-002
  6.905810860000000E-002  1.949551184322733E-003
 
           8 0
 s           8   1.000000    
   337.005012218500       3.493347982520940E-002
   53.3105310515000       6.110486192153713E-002
   12.2082534814000       0.109159560037833     
   3.41882690980000       0.167398920189340     
   1.10879012580000       0.205954397794275     
  0.478717798300000       0.123836037978175     
  0.212137087700000       8.680120403494199E-002
  6.905810860000000E-002  6.756945141189817E-003
 
           9 0
 s           6   1.000000    
   2.20862762910000       -1.31830302929637     
   1.91795894900000        1.01037172627426     
  0.497153036800000       0.264430023492772     
  0.192182467300000       0.132745485519889     
  0.150531183200000      -6.384765285746903E-002
  7.818867730000000E-002  2.206724671170748E-002
 p           6   1.000000    
   24.5973356357000       0.512994530531269     
   6.48816086650000       0.736724820333955     
   2.22635867440000       0.654620089087050     
  0.776897003100000       0.441164564649332     
  0.283424721400000       0.120099908279883     
  9.862825729999999E-002  1.406649634762544E-002
 
          10 0
 s           8   1.000000    
   337.005012218500       3.512265183176368E-002
   53.3105310515000       6.127494079143898E-002
   12.2082534814000       0.109673294337007     
   3.41882690980000       0.168004188910342     
   1.10879012580000       0.206966692187052     
  0.478717798300000       0.124033978517244     
  0.212137087700000       8.693973476199512E-002
  6.905810860000000E-002  6.391689583533876E-003
 
          11 0
 s           8   1.000000    
   337.005012218500       3.512717937015194E-002
   53.3105310515000       6.127900719235056E-002
   12.2082534814000       0.109685587762108     
   3.41882690980000       0.168018667261454     
   1.10879012580000       0.206990917209871     
  0.478717798300000       0.124038703652299     
  0.212137087700000       8.694304167775277E-002
  6.905810860000000E-002  6.382937331494878E-003
 
          12 0
 s           6   1.000000    
   3.48359494310000       -1.32186834550802     
   2.85986576440000        1.12322923755560     
  0.740681029000000       0.297458404486056     
  0.344926919200000       8.199420746869525E-002
  0.261978532900000       3.976413999096558E-002
  9.461635039999999E-002  1.087622942371232E-002
 p           6   1.000000    
   37.6414713255000        1.50603827983065     
   9.71308856170000        1.82794881984924     
   3.13717714760000        1.33845434002360     
   1.12138051620000       0.646039922469991     
  0.398077926500000       0.184973901559626     
  0.123047771000000       1.631357260276619E-002
 
          13 0
 s           8   1.000000    
   337.005012218500       3.704970118300856E-002
   53.3105310515000       6.298765120633394E-002
   12.2082534814000       0.114897032894713     
   3.41882690980000       0.174132748256064     
   1.10879012580000       0.217265982451992     
  0.478717798300000       0.125992033649693     
  0.212137087700000       8.831001078760529E-002
  6.905810860000000E-002  2.621339479316905E-003
 
          14 0
 s           8   1.000000    
   337.005012218500       3.512988995000040E-002
   53.3105310515000       6.128144160147614E-002
   12.2082534814000       0.109692947634879     
   3.41882690980000       0.168027335091507     
   1.10879012580000       0.207005420364073     
  0.478717798300000       0.124041532255783     
  0.212137087700000       8.694502129343298E-002
  6.905810860000000E-002  6.377697235343174E-003
 
          15 0
 s           6   1.000000    
   2.20862762910000       -1.31466085571483     
   1.91795894900000        1.00756730739853     
  0.497153036800000       0.263695727975321     
  0.192182467300000       0.132377190873729     
  0.150531183200000      -6.315014008906401E-002
  7.818867730000000E-002  2.200593970208572E-002
 p           6   1.000000    
   24.5973356357000       0.511976691104330     
   6.48816086650000       0.735796538284217     
   2.22635867440000       0.653758406009115     
  0.776897003100000       0.440631490933041     
  0.283424721400000       0.119955266895446     
  9.862825729999999E-002  1.420333951033206E-002
 
          16 0
 s           8   1.000000    
   337.005012218500       3.497463056722394E-002
   53.3105310515000       6.114188825154162E-002
   12.2082534814000       0.109271327005342     
   3.41882690980000       0.167530638988210     
   1.10879012580000       0.206174621555169     
  0.478717798300000       0.123879181185503     
  0.212137087700000       8.683139838325046E-002
  6.905810860000000E-002  6.677563098666107E-003
 
          17 0
 s           8   1.000000    
   337.005012218500       3.498480246487446E-002
   53.3105310515000       6.115103817529691E-002
   12.2082534814000       0.109298953071578     
   3.41882690980000       0.167563193426518     
   1.10879012580000       0.206229056255372     
  0.478717798300000       0.123889838316095     
  0.212137087700000       8.683885690695689E-002
  6.905810860000000E-002  6.657934762297429E-003
 
          18 0
 s           6   1.000000    
   3.48359494310000       -1.32159589623215     
   2.85986576440000        1.12297162266722     
  0.740681029000000       0.297368600009347     
  0.344926919200000       8.197559468463299E-002
  0.261978532900000       3.975470432406410E-002
  9.461635039999999E-002  1.092235593041846E-002
 p           6   1.000000    
   37.6414713255000        1.50507939187846     
   9.71308856170000        1.82691687055968     
   3.13717714760000        1.33738441679945     
   1.12138051620000       0.645651027828253     
  0.398077926500000       0.184917218492894     
  0.123047771000000       1.640122806165344E-002
 
          19 0
 s           8   1.000000    
   337.005012218500       3.740905451981639E-002
   53.3105310515000       6.330291804523951E-002
   12.2082534814000       0.115869166894136     
   3.41882690980000       0.175267881532847     
   1.10879012580000       0.219183942431808     
  0.478717798300000       0.126345068925079     
  0.212137087700000       8.855705108374456E-002
  6.905810860000000E-002  1.907962910984310E-003
 
          20 0
 s           8   1.000000    
   337.005012218500       3.451500743501260E-002
   53.3105310515000       6.072742425254990E-002
   12.2082534814000       0.108022536550640     
   3.41882690980000       0.166057738306599     
   1.10879012580000       0.203714305034283     
  0.478717798300000       0.123394636529608     
  0.212137087700000       8.649227928719815E-002
  6.905810860000000E-002  7.561933789357577E-003
 
          21 0
 s           8   1.000000    
   337.005012218500       3.454377472171514E-002
   53.3105310515000       6.075342330810007E-002
   12.2082534814000       0.108100724938259     
   3.41882690980000       0.166150034545121     
   1.10879012580000       0.203868330724660     
  0.478717798300000       0.123425134762581     
  0.212137087700000       8.651362439697216E-002
  6.905810860000000E-002  7.506727535932445E-003
 
          22 0
 s           8   1.000000    
   337.005012218500       3.571560147418117E-002
   53.3105310515000       6.180582254856611E-002
   12.2082534814000       0.111282498309696     
   3.41882690980000       0.169897210591453     
   1.10879012580000       0.210138252703242     
  0.478717798300000       0.124647883554333     
  0.212137087700000       8.736937256208901E-002
  6.905810860000000E-002  5.241264424454835E-003
 
          23 0
 s           8   1.000000    
   337.005012218500       3.528724894685516E-002
   53.3105310515000       6.142264754517900E-002
   12.2082534814000       0.110120157048552     
   3.41882690980000       0.168530308667658     
   1.10879012580000       0.207847304027976     
  0.478717798300000       0.124205389259462     
  0.212137087700000       8.705969709151368E-002
  6.905810860000000E-002  6.073189932724761E-003
 
          24 0
 s           8   1.000000    
   337.005012218500       3.520730618418611E-002
   53.3105310515000       6.135094057920770E-002
   12.2082534814000       0.109903136983425     
   3.41882690980000       0.168274839486850     
   1.10879012580000       0.207419622581033     
  0.478717798300000       0.124122232310323     
  0.212137087700000       8.700149959353805E-002
  6.905810860000000E-002  6.227962093048324E-003
 
          25 0
 s           6   1.000000    
   2.20862762910000       -1.29301750108643     
   1.91795894900000       0.990902384810479     
  0.497153036800000       0.259332268459559     
  0.192182467300000       0.130188642509216     
  0.150531183200000      -5.901063387959869E-002
  7.818867730000000E-002  2.164163073934589E-002
 p           6   1.000000    
   24.5973356357000       0.505846963049533     
   6.48816086650000       0.730192876008673     
   2.22635867440000       0.648558218852121     
  0.776897003100000       0.437412647710517     
  0.283424721400000       0.119081863525629     
  9.862825729999999E-002  1.502334942568644E-002
 
          26 0
 s           6   1.000000    
   2.20862762910000       -1.36082537926157     
   1.91795894900000        1.04311378478132     
  0.497153036800000       0.273003058790306     
  0.192182467300000       0.137045381083559     
  0.150531183200000      -7.201071099952112E-002
  7.818867730000000E-002  2.278301839747751E-002
 p           6   1.000000    
   24.5973356357000       0.524594330966332     
   6.48816086650000       0.747258647612890     
   2.22635867440000       0.664403105592627     
  0.776897003100000       0.447210652083777     
  0.283424721400000       0.121740354578366     
  9.862825729999999E-002  1.249296364979551E-002
 
          27 0
 s           6   1.000000    
   2.20862762910000       -1.42423049235151     
   1.91795894900000        1.09193719517492     
  0.497153036800000       0.285786807549940     
  0.192182467300000       0.143457161615380     
  0.150531183200000      -8.425078940542034E-002
  7.818867730000000E-002  2.385035066132815E-002
 p           6   1.000000    
   24.5973356357000       0.540964481958955     
   6.48816086650000       0.761977516556902     
   2.22635867440000       0.678088923104634     
  0.776897003100000       0.455648891693898     
  0.283424721400000       0.124029630436591     
  9.862825729999999E-002  1.022694640476723E-002
 
          28 0
 s           6   1.000000    
   2.20862762910000       -1.34660013752572     
   1.91795894900000        1.03216029850154     
  0.497153036800000       0.270135043965306     
  0.192182467300000       0.135606900750919     
  0.150531183200000      -6.927583945401945E-002
  7.818867730000000E-002  2.254356461971517E-002
 p           6   1.000000    
   24.5973356357000       0.520771136640711     
   6.48816086650000       0.743796094389344     
   2.22635867440000       0.661186333207647     
  0.776897003100000       0.445223883754232     
  0.283424721400000       0.121201311207912     
  9.862825729999999E-002  1.301446035657589E-002
 
          29 0
 s           6   1.000000    
   2.69507309610000       -1.14183727551840     
   2.24947021280000       0.942660127672322     
  0.611851695800000       0.237271581771395     
  0.303726665600000       9.065135168414838E-002
  0.171628270400000       3.154296144414123E-002
  7.154913430000000E-002  8.814769553602404E-003
 p           6   1.000000    
   27.5476401720000       0.952005229116153     
   7.12656627820000        1.21170795239540     
   2.35805520400000       0.920155509022697     
  0.845047262300000       0.481631578441654     
  0.301063057900000       0.124960210466645     
  9.457452580000000E-002  1.099265497549516E-002
 
          30 0
 s           6   1.000000    
   2.69507309610000       -1.14256472942621     
   2.24947021280000       0.943269495969340     
  0.611851695800000       0.237425480701730     
  0.303726665600000       9.070999835195866E-002
  0.171628270400000       3.156385097652507E-002
  7.154913430000000E-002  8.727184286503065E-003
 p           6   1.000000    
   27.5476401720000       0.953332560439255     
   7.12656627820000        1.21276812225902     
   2.35805520400000       0.921372044007124     
  0.845047262300000       0.482099605840050     
  0.301063057900000       0.125053403423584     
  9.457452580000000E-002  1.087452023290030E-002
 
[MO]
Sym=     1a
Ene=   -1.55159327685925     
Spin= Alpha
Occup=     2.00000000
           1  3.243953456380849E-002
           2  2.905425970055972E-004
           3 -6.261019406769474E-003
           4  1.248635449042156E-004
           5  2.353547743126828E-002
           6  9.839371446081832E-002
           7  2.842438182806594E-002
           8 -1.628801842145228E-002
           9  1.407033811138862E-002
          10  2.372925165390400E-002
          11  2.484440779906597E-002
          12  0.489642508064613     
          13 -8.716479937278320E-003
          14  4.779779329052767E-003
          15 -9.703800065009061E-003
          16  6.786801019420978E-002
          17  2.577590344267753E-002
          18  0.101078599311362     
          19  2.957231513979485E-002
          20  2.189442012944052E-002
          21 -1.032616802243817E-002
          22  2.451857928416134E-002
          23  3.014117991619149E-002
          24  0.496756062481749     
          25 -1.233897619643614E-002
          26 -4.004514235302965E-003
          27  6.920609061456469E-003
          28  6.559846708084575E-002
          29  2.006391933092240E-002
          30  8.315474824802516E-002
          31 -2.236523380451721E-002
          32 -1.676956704589999E-002
          33  1.067361481719985E-002
          34  2.043121250557126E-002
          35  2.124520960959432E-002
          36  0.420975525265291     
          37  1.110611374910643E-002
          38  4.651492162479598E-003
          39 -1.209553069945423E-003
          40  5.907027676532234E-002
          41  6.279788162711187E-003
          42  5.791827570820469E-003
          43  2.066277196866503E-003
          44  4.961809565284660E-003
          45  2.016690881968662E-003
          46  3.735005289247060E-003
          47  7.180612934954924E-005
          48  4.102656940388969E-003
          49 -2.160015078847399E-003
          50  8.154680698579199E-003
          51  3.068987205534148E-005
          52 -1.615746491176909E-003
          53  1.880202835492091E-003
          54  1.283052658108557E-002
          55 -8.836828603205724E-005
          56  1.288175383441707E-003
          57 -1.203873423221396E-003
          58  7.917009383450302E-003
          59  3.193744577613663E-004
          60  3.459321057454838E-003
          61  3.113315577210454E-003
          62  1.365547681173382E-002
          63 -2.052462696006128E-004
          64 -1.468748135904586E-003
          65 -7.978310397337992E-004
          66  1.948466326026752E-002
          67  1.807972044083400E-004
          68  6.863083739780751E-003
          69  2.726695798390228E-005
Sym=     2a
Ene=   -1.52626095550757     
Spin= Alpha
Occup=     2.00000000
           1 -6.213613277174511E-004
           2  3.859387138729029E-003
           3  1.319944629654410E-003
           4  9.660193097421039E-003
           5 -2.514675779044702E-002
           6 -0.112053989894597     
           7 -3.406297738842977E-002
           8  1.771687526622954E-002
           9 -1.871411385758635E-002
          10 -2.552196021023179E-002
          11 -2.455929238927573E-002
          12 -0.516875990061019     
          13  7.267064801261684E-003
          14 -4.533788279464496E-003
          15  8.483203294357528E-003
          16 -6.956033287338897E-002
          17  2.973228387505895E-002
          18  0.138568563474775     
          19  3.902473091127572E-002
          20  2.873834875216901E-002
          21 -1.752432353217572E-002
          22  3.069754353651890E-002
          23  2.681401431700538E-002
          24  0.635008166307811     
          25 -1.363834855257869E-002
          26 -1.994676922925107E-003
          27  6.930104737506542E-003
          28  8.466540329854365E-002
          29 -7.529243603108893E-003
          30 -3.169770832428084E-002
          31  9.182131622621569E-003
          32  6.218590299537446E-003
          33 -5.144196994058326E-003
          34 -6.713711982640085E-003
          35 -8.194729017164561E-003
          36 -0.150331612589234     
          37 -3.248015730967791E-003
          38 -1.660232239083790E-003
          39 -1.811802921476596E-004
          40 -1.666854053178813E-002
          41  6.170992156637981E-003
          42  5.978811691738118E-003
          43  4.826932310532262E-004
          44 -1.435971411128829E-003
          45  1.979742700856992E-003
          46  2.400625698726569E-003
          47  2.449135118655216E-004
          48  2.503093631989698E-003
          49 -2.558213973936908E-003
          50  2.422622953675427E-003
          51  7.543425134120179E-005
          52 -5.659023105448467E-004
          53  5.953912555086167E-004
          54  5.534512269861936E-003
          55 -1.949947183756279E-005
          56 -6.019710796600411E-004
          57 -1.471339267021032E-004
          58  2.451684651610884E-003
          59 -3.625872551705805E-004
          60 -5.636002382195981E-004
          61 -3.340719984044233E-004
          62  4.797283253879950E-003
          63 -3.362631682176436E-005
          64 -5.569671454557915E-004
          65 -2.063850571519359E-004
          66  4.542651690769475E-003
          67 -3.587308959636459E-004
          68  3.243392488117039E-004
          69  6.187132658642084E-004
Sym=     3a
Ene=   -1.52120927114419     
Spin= Alpha
Occup=     2.00000000
           1 -2.169740361807500E-003
           2 -9.845113991788921E-003
           3  3.708353389054582E-004
           4  3.609716006723965E-003
           5  2.096372406070949E-002
           6  9.187942793154077E-002
           7  2.897700518877519E-002
           8 -1.451104221627112E-002
           9  1.435792275649236E-002
          10  2.041438725907202E-002
          11  2.159329535402227E-002
          12  0.421525130999434     
          13 -6.129093886121189E-003
          14  4.165368135236513E-003
          15 -8.276816037521145E-003
          16  5.107802517741628E-002
          17  1.036982701734693E-002
          18  3.969871744638342E-002
          19  1.252773394842988E-002
          20  9.116458492029002E-003
          21 -5.057612233885513E-003
          22  9.145860837755928E-003
          23  1.216584218788394E-002
          24  0.177043907144243     
          25 -3.736634047385964E-003
          26 -1.125042755542566E-003
          27  2.304319008343672E-003
          28  2.268161114348857E-002
          29 -3.399226680968379E-002
          30 -0.150125106894147     
          31  4.456432649876568E-002
          32  2.913465224177060E-002
          33 -2.088456921916977E-002
          34 -3.398257717307591E-002
          35 -3.416039435392659E-002
          36 -0.696561643709339     
          37 -1.581730070842612E-002
          38 -7.087477344537273E-003
          39  3.968965163940198E-004
          40 -9.119528141206762E-002
          41  6.295373417129140E-004
          42  1.493109581088996E-003
          43 -1.745823506471418E-004
          44 -1.293510155620118E-004
          45  3.060569695152736E-004
          46  1.407726553368403E-004
          47  6.288936569841804E-004
          48  3.323313974899366E-004
          49 -4.781249051225185E-004
          50 -5.747051822634747E-004
          51 -1.699715119012090E-004
          52  9.568603995651301E-005
          53 -1.039498161995373E-004
          54 -5.709119924634950E-004
          55  2.230244176810961E-004
          56 -8.838929799756980E-005
          57  2.304286075022125E-004
          58 -8.230989175799297E-004
          59  1.079485047147568E-003
          60 -3.460329999454336E-004
          61 -2.588404775077757E-004
          62 -7.640691684974607E-004
          63 -7.508361387009245E-005
          64  1.596801369963214E-005
          65  4.644589527544795E-005
          66 -1.829783873866250E-003
          67  1.416905766167511E-003
          68 -4.695158015129241E-004
          69 -3.189268884858044E-004
Sym=     4a
Ene=   -1.41879054640669     
Spin= Alpha
Occup=     2.00000000
           1 -3.296205268708451E-002
           2  4.896384649692179E-004
           3 -3.455129406095819E-002
           4  2.081191122090055E-003
           5  8.960381880245890E-004
           6  5.790774833697394E-003
           7  2.848524405565020E-003
           8  8.531177465241534E-004
           9  1.645033677098670E-003
          10 -1.569596577027976E-004
          11 -4.752698915395072E-004
          12  2.164502370082822E-002
          13 -1.018978320793287E-004
          14  1.074100389433155E-003
          15 -8.368787525084534E-004
          16  2.925333449231880E-003
          17  2.137683936457291E-003
          18  1.243203361018907E-002
          19  3.499459359068410E-003
          20  4.122927220118849E-003
          21 -1.831998242226207E-003
          22  2.291131610027539E-003
          23  2.217053171559024E-003
          24  4.403428963492846E-002
          25 -8.540902793396569E-004
          26  1.422649907388809E-003
          27  1.410941777999038E-003
          28  2.374533004569163E-003
          29  1.119413523212281E-003
          30  7.761861392831765E-003
          31 -3.666647631138393E-003
          32  8.296536398271383E-004
          33  1.589801730892401E-003
          34  4.197141332138124E-004
          35 -2.255056011915680E-003
          36  2.852723643075215E-002
          37  7.432003334957277E-004
          38  1.163965493936953E-003
          39  2.037058643466634E-004
          40  3.914270840799824E-003
          41 -2.727206003996290E-002
          42 -2.703208970701546E-002
          43 -5.055871339247332E-002
          44 -5.254472300148793E-002
          45 -2.929420492422184E-002
          46 -0.113980367178025     
          47  2.680438511438970E-003
          48 -1.049443438529621E-002
          49  3.783630740777606E-002
          50 -0.210895973692855     
          51 -1.889985619082736E-003
          52  3.530307961633336E-002
          53 -4.266072034363277E-002
          54 -0.285715271802714     
          55  3.131141084214684E-003
          56 -1.312767548296569E-002
          57  4.416381724107517E-002
          58 -0.215450183575720     
          59 -5.236121577689080E-003
          60 -8.742071372518227E-003
          61 -5.607040289930799E-002
          62 -0.327607628612283     
          63  2.773781559338260E-003
          64  2.878644898270475E-002
          65  1.666321452216290E-002
          66 -0.331751098478201     
          67 -2.789208816509770E-003
          68 -4.990038794513776E-002
          69 -3.195604220702535E-003
Sym=     5a
Ene=  -0.977369000852692     
Spin= Alpha
Occup=     2.00000000
           1 -5.344910412038364E-002
           2  3.262359804360419E-004
           3 -4.101860465022067E-002
           4 -3.489734384380462E-004
           5 -2.939632132991596E-003
           6 -5.725462608235006E-003
           7  3.589875537497885E-003
           8 -1.430365125221780E-003
           9  1.495341757457660E-003
          10 -6.513978944647692E-003
          11 -6.998606674992134E-003
          12  2.031135723983664E-002
          13  2.487728187907312E-003
          14 -4.243844089037830E-003
          15 -1.173083712195749E-003
          16  3.723065586672183E-003
          17 -2.089231265710910E-003
          18 -1.125082347040001E-002
          19 -1.317057416361445E-003
          20 -4.817888220293870E-004
          21 -9.168863467778113E-004
          22 -2.710404100654926E-003
          23 -3.008588514100778E-003
          24 -7.276720132624509E-003
          25  3.522219418679139E-003
          26  5.687627390399527E-003
          27  9.914892562452834E-004