49
 energy: -2841.193233247300 gnorm: 0.000347649325 xtb: 6.7.1 (edcfbbe)
ZN           0.00122201671634       -0.00068422300009       -0.00023049670961
N           -3.05525851437371       -0.39449613811850       -2.75729760074600
N           -1.55634428119188       -0.46358843976322       -1.17977897352041
C           -2.04225239249589        0.25847273860998       -2.17258912877578
C           -1.55023515193107        1.58190836784507       -2.60507269959054
C           -3.21936386008513       -1.58762455909746       -2.10910655018748
C           -2.28282739198989       -1.61854291504159       -1.13408579498513
H           -3.60252441415349       -0.06788499769347       -3.53531443755383
H           -0.76954348993142        1.91670833731660       -1.92538924100507
H           -1.14346607084166        1.52645464416657       -3.61420885467723
H           -2.35915706502368        2.31041369962145       -2.61191329106584
H           -3.97288873688106       -2.29876209321867       -2.38805784753686
H           -2.08423887470978       -2.38642124051582       -0.41116570085226
N            3.11225490872956        0.41005997070067       -2.69359049816079
N            1.58140139994020        0.46877405611911       -1.14654446270746
C            2.08466550115753       -0.24472345679207       -2.13693462695661
C            1.59847511450797       -1.56264176161497       -2.59227430517356
C            3.26820469041418        1.59524580354224       -2.02906669592765
C            2.31173417504000        1.61988454365613       -1.07341486775291
H            3.67402818390255        0.08938022375284       -3.46370025237133
H            0.78212731386835       -1.88770397126519       -1.95068584400427
H            1.24248351473212       -1.50366703625894       -3.62016997106399
H            2.39812807319886       -2.30087809907218       -2.55906748825120
H            4.03018849573993        2.30608585243244       -2.28489131365439
H            2.10139580958504        2.38094256953493       -0.34665080407308
N           -0.42938201652266        3.07501521322344        2.73071478878352
N           -0.47706791240715        1.56410827581542        1.16381057745982
C            0.23175375241209        2.05802988234822        2.16221648409142
C            1.55100294567748        1.57238992893917        2.61430028059669
C           -1.61400621111507        3.23348525066630        2.06580314336041
C           -1.63169104341994        2.28955287459946        1.09761320025008
H           -0.11310341399678        3.62845461835599        3.50863842237399
H            1.49223451597854        1.20621832953588        3.63860147334806
H            1.87985447124448        0.76360067141852        1.96511061014911
H            2.28633310463333        2.37505916374957        2.58972383080783
H           -2.32933432346109        3.98836138210231        2.33003963747420
H           -2.39024232557385        2.08475601455263        0.36663254996665
N            0.37090875567054       -3.09047909831632        2.72227112896699
N            0.45401461959275       -1.57300929500471        1.16328691841869
C           -0.27531012474702       -2.06829635953486        2.14613352267513
C           -1.60022258413841       -1.57806957378640        2.57616219068747
C            1.56704957678803       -3.25102986988369        2.07873698304198
C            1.60654448081593       -2.30312220959305        1.11506616053112
H            0.03814364094150       -3.64572829025900        3.49197985820509
H           -2.33341012834506       -2.38273297517729        2.55765413310029
H           -1.55281396165597       -1.19403489359862        3.59464093778561
H           -1.92363953103518       -0.78076037565818        1.91030746213252
H            2.27405304024692       -4.01024503069586        2.35271647985673
H            2.37906459849407       -2.09873800964412        0.39872224324110
