[Molden Format]
[Title]
[Atoms] AU
Zn     1    30  0.84119262738591E-03 -0.13148335496306E-01  0.11752772852364E-02
N      2     7 -0.58693880527434E+01 -0.73470108761906E+00 -0.52016304138495E+01
N      3     7 -0.29889852115703E+01 -0.82958763110600E+00 -0.22350739443200E+01
C      4     6 -0.38919335363033E+01  0.53314924406045E+00 -0.41746370924942E+01
C      5     6 -0.28929408896608E+01  0.29742641705157E+01 -0.51366355560793E+01
C      6     6 -0.62475534983962E+01 -0.29667240882248E+01 -0.39090768848243E+01
C      7     6 -0.44395800589638E+01 -0.30096434504334E+01 -0.20626582551300E+01
H      8     1 -0.69104173516872E+01 -0.12665580425609E+00 -0.66960656570022E+01
H      9     1 -0.17034773180306E+01  0.38861165628623E+01 -0.37079744747980E+01
H     10     1 -0.17349094327858E+01  0.26924330630201E+01 -0.68403086119280E+01
H     11     1 -0.44279525749446E+01  0.42787516026294E+01 -0.56326096002298E+01
H     12     1 -0.77351715739356E+01 -0.42835657551791E+01 -0.44011828866394E+01
H     13     1 -0.40803118354209E+01 -0.44428958099812E+01 -0.64597314223771E+00
N     14     7  0.59458411695702E+01  0.83527687796734E+00 -0.51017560519943E+01
N     15     7  0.30099518537151E+01  0.85629278526870E+00 -0.21879211234613E+01
C     16     6  0.39788518800762E+01 -0.47999656207931E+00 -0.41140723382607E+01
C     17     6  0.30945150886778E+01 -0.29722496848154E+01 -0.50575718772830E+01
C     18     6  0.62528112074304E+01  0.30687874519755E+01 -0.37930165096349E+01
C     19     6  0.44108126468278E+01  0.30654819999648E+01 -0.19803757682596E+01
H     20     1  0.70274849319321E+01  0.25697110068720E+00 -0.65789843006547E+01
H     21     1  0.13816867450425E+01 -0.35485182807860E+01 -0.40484576692630E+01
H     22     1  0.26525408906701E+01 -0.28972869570826E+01 -0.70853555605128E+01
H     23     1  0.45348197166494E+01 -0.44459938645644E+01 -0.47909953371809E+01
H     24     1  0.77131254447161E+01  0.44246648107692E+01 -0.42602901135384E+01
H     25     1  0.39869084055831E+01  0.44904609879483E+01 -0.57373076955454E+00
N     26     7 -0.85979758447414E+00  0.58668345793960E+01  0.51807200666419E+01
N     27     7 -0.87251559156790E+00  0.29702837461757E+01  0.22277659014835E+01
C     28     6  0.45785496390271E+00  0.39125619552904E+01  0.41709997101133E+01
C     29     6  0.29468624255584E+01  0.30152293670776E+01  0.51102093632673E+01
C     30     6 -0.30886336188888E+01  0.61928243691993E+01  0.38687216540175E+01
C     31     6 -0.30804977815821E+01  0.43752077336268E+01  0.20315301405949E+01
H     32     1 -0.28579524239751E+00  0.69278718624897E+01  0.66745180374989E+01
H     33     1  0.28619804883073E+01  0.25323141421033E+01  0.71283175360425E+01
H     34     1  0.35334714887652E+01  0.13249313382551E+01  0.40697696210380E+01
H     35     1  0.44180355953030E+01  0.44644548245322E+01  0.48809257530045E+01
H     36     1 -0.44448390719089E+01  0.76480651457349E+01  0.43507115935579E+01
H     37     1 -0.45009446019282E+01  0.39712370969169E+01  0.61403291795820E+00
N     38     7  0.71950279626558E+00 -0.59577116912490E+01  0.51163587584074E+01
N     39     7  0.81641539057591E+00 -0.30315919375111E+01  0.21948575138873E+01
C     40     6 -0.54682027776571E+00 -0.39635663211765E+01  0.41204071911095E+01
C     41     6 -0.29865365235291E+01 -0.29778875311298E+01  0.50996691897885E+01
C     42     6  0.29513548900527E+01 -0.63171192253920E+01  0.38181930833412E+01
C     43     6  0.29954346007113E+01 -0.44807506687409E+01  0.20002588604187E+01
H     44     1  0.11084843531864E+00 -0.70216659364843E+01  0.65942582566369E+01
H     45     1 -0.43017250014952E+01 -0.45186275806030E+01  0.55478742112293E+01
H     46     1 -0.27049689383229E+01 -0.18694828109966E+01  0.68360247164912E+01
H     47     1 -0.38855786145646E+01 -0.17434731229539E+01  0.37014912784590E+01
H     48     1  0.42671893897459E+01 -0.78130858080010E+01  0.42870610679601E+01
H     49     1  0.44290321376085E+01 -0.41005892000107E+01  0.58989992653287E+00
[GTO]
           1 0
 s           5   1.000000    
   1.82046632240000       0.241710147729035     
   1.13274582070000      -0.439547311441747     
  0.315046004900000       8.992095338177488E-003
  0.148617277200000       0.167352043531487     
  5.129314220000000E-002  1.316885886013616E-002
 p           3   1.000000    
   1.22375302100000      -0.202415015360598     
  0.183640111800000       0.161129494354827     
  4.740596480000000E-002  4.637325123642402E-003
 
           2 0
 s           6   1.000000    
   2.69507309610000       -1.15416575166997     
   2.24947021280000       0.952988243191847     
  0.611851695800000       0.239880049091181     
  0.303726665600000       9.164535215140654E-002
  0.171628270400000       3.189706535311720E-002
  7.154913430000000E-002  7.321035449066524E-003
 p           6   1.000000    
   27.5476401720000       0.974373435474693     
   7.12656627820000        1.22943691677318     
   2.35805520400000       0.940642116044705     
  0.845047262300000       0.489474469203842     
  0.301063057900000       0.126513052892702     
  9.457452580000000E-002  8.972782510173197E-003
 
           3 0
 s           6   1.000000    
   2.69507309610000       -1.14278719247645     
   2.24947021280000       0.943455848494593     
  0.611851695800000       0.237472545014456     
  0.303726665600000       9.072793325077808E-002
  0.171628270400000       3.157023933184822E-002
  7.154913430000000E-002  8.700386080112364E-003
 p           6   1.000000    
   27.5476401720000       0.953738295686250     
   7.12656627820000        1.21309199266960     
   2.35805520400000       0.921743890252960     
  0.845047262300000       0.482242606711483     
  0.301063057900000       0.125081864704265     
  9.457452580000000E-002  1.083836677156977E-002
 
           4 0
 s           6   1.000000    
   2.20862762910000       -1.42176279201522     
   1.91795894900000        1.09003696996231     
  0.497153036800000       0.285289258321867     
  0.192182467300000       0.143207613209598     
  0.150531183200000      -8.377286167336458E-002
  7.818867730000000E-002  2.380880952726652E-002
 p           6   1.000000    
   24.5973356357000       0.540347205727352     
   6.48816086650000       0.761425734921966     
   2.22635867440000       0.677575512246841     
  0.776897003100000       0.455332778998444     
  0.283424721400000       0.123943874597339     
  9.862825729999999E-002  1.031338931074508E-002
 
           5 0
 s           6   1.000000    
   2.20862762910000       -1.30198643543879     
   1.91795894900000       0.997808245476038     
  0.497153036800000       0.261140463565089     
  0.192182467300000       0.131095566356060     
  0.150531183200000      -6.072490960632932E-002
  7.818867730000000E-002  2.179259843244970E-002
 p           6   1.000000    
   24.5973356357000       0.508404102066394     
   6.48816086650000       0.732533309587220     
   2.22635867440000       0.650729837610718     
  0.776897003100000       0.438757219224261     
  0.283424721400000       0.119446704634962     
  9.862825729999999E-002  1.468211620578620E-002
 
           6 0
 s           6   1.000000    
   2.20862762910000       -1.35463266251144     
   1.91795894900000        1.03834535855273     
  0.497153036800000       0.271754513780476     
  0.192182467300000       0.136419161675751     
  0.150531183200000      -7.081962970259155E-002
  7.818867730000000E-002  2.267877594554079E-002
 p           6   1.000000    
   24.5973356357000       0.522936947859148     
   6.48816086650000       0.745758742077688     
   2.22635867440000       0.663009542615983     
  0.776897003100000       0.446350102707100     
  0.283424721400000       0.121506874876253     
  9.862825729999999E-002  1.271938748117970E-002
 
           7 0
 s           6   1.000000    
   2.20862762910000       -1.35291658751547     
   1.91795894900000        1.03702397470651     
  0.497153036800000       0.271408528184854     
  0.192182467300000       0.136245629284377     
  0.150531183200000      -7.048970396574937E-002
  7.818867730000000E-002  2.264988921960218E-002
 p           6   1.000000    
   24.5973356357000       0.522475768198192     
   6.48816086650000       0.745341071655769     
   2.22635867440000       0.662621518817603     
  0.776897003100000       0.446110449236421     
  0.283424721400000       0.121441852903555     
  9.862825729999999E-002  1.278229588860176E-002
 
           8 0
 s           8   1.000000    
   337.005012218500       3.771222017773641E-002
   53.3105310515000       6.356785165412820E-002
   12.2082534814000       0.116688800315948     
   3.41882690980000       0.176223582082583     
   1.10879012580000       0.220801349220485     
  0.478717798300000       0.126639851205617     
  0.212137087700000       8.876332324402329E-002
  6.905810860000000E-002  1.303532519064997E-003
 
           9 0
 s           8   1.000000    
   337.005012218500       3.505034980934450E-002
   53.3105310515000       6.120997638650312E-002
   12.2082534814000       0.109476963111589     
   3.41882690980000       0.167772928912182     
   1.10879012580000       0.206579816420711     
  0.478717798300000       0.123958443209362     
  0.212137087700000       8.688687077828326E-002
  6.905810860000000E-002  6.531391568654555E-003
 
          10 0
 s           8   1.000000    
   337.005012218500       3.509379994079127E-002
   53.3105310515000       6.124902292386223E-002
   12.2082534814000       0.109594951862103     
   3.41882690980000       0.167911916530887     
   1.10879012580000       0.206812314472655     
  0.478717798300000       0.124003853942245     
  0.212137087700000       8.691865186633217E-002
  6.905810860000000E-002  6.447452133426197E-003
 
          11 0
 s           8   1.000000    
   337.005012218500       3.520398296290608E-002
   53.3105310515000       6.134795839573436E-002
   12.2082534814000       0.109894114820306     
   3.41882690980000       0.168264217150329     
   1.10879012580000       0.207401843011748     
  0.478717798300000       0.124118771582945     
  0.212137087700000       8.699907759304608E-002
  6.905810860000000E-002  6.234392663776185E-003
 
          12 0
 s           8   1.000000    
   337.005012218500       3.577463454020411E-002
   53.3105310515000       6.185849009714205E-002
   12.2082534814000       0.111442618367357     
   3.41882690980000       0.170085327964544     
   1.10879012580000       0.210453888706202     
  0.478717798300000       0.124708455808356     
  0.212137087700000       8.741176285064241E-002
  6.905810860000000E-002  5.126264904196891E-003
 
          13 0
 s           8   1.000000    
   337.005012218500       3.553954310940646E-002
   53.3105310515000       6.164854736794954E-002
   12.2082534814000       0.110804864481959     
   3.41882690980000       0.169335798483834     
   1.10879012580000       0.209196780974182     
  0.478717798300000       0.124466643604865     
  0.212137087700000       8.724253446375337E-002
  6.905810860000000E-002  5.583732793233787E-003
 
          14 0
 s           6   1.000000    
   2.69507309610000       -1.15416849790356     
   2.24947021280000       0.952990544047099     
  0.611851695800000       0.239880630207171     
  0.303726665600000       9.164557359186300E-002
  0.171628270400000       3.189714425080663E-002
  7.154913430000000E-002  7.320700462092232E-003
 p           6   1.000000    
   27.5476401720000       0.974378386392736     
   7.12656627820000        1.22944080774745     
   2.35805520400000       0.940646647001714     
  0.845047262300000       0.489476194422030     
  0.301063057900000       0.126513392331293     
  9.457452580000000E-002  8.972328415344248E-003
 
          15 0
 s           6   1.000000    
   2.69507309610000       -1.14280619368867     
   2.24947021280000       0.943471765430649     
  0.611851695800000       0.237476564922207     
  0.303726665600000       9.072946512518965E-002
  0.171628270400000       3.157078498228193E-002
  7.154913430000000E-002  8.698096869851445E-003
 p           6   1.000000    
   27.5476401720000       0.953772946852598     
   7.12656627820000        1.21311964796029     
   2.35805520400000       0.921775646725663     
  0.845047262300000       0.482254818067196     
  0.301063057900000       0.125084294835167     
  9.457452580000000E-002  1.083527822264714E-002
 
          16 0
 s           6   1.000000    
   2.20862762910000       -1.42171334587375     
   1.91795894900000        1.08999889454298     
  0.497153036800000       0.285279288769945     
  0.192182467300000       0.143202612928120     
  0.150531183200000      -8.376328656868108E-002
  7.818867730000000E-002  2.380797715443875E-002
 p           6   1.000000    
   24.5973356357000       0.540334821157476     
   6.48816086650000       0.761414661744357     
   2.22635867440000       0.677565209388927     
  0.776897003100000       0.455326435053823     
  0.283424721400000       0.123942153592257     
  9.862825729999999E-002  1.031512282064305E-002
 
          17 0
 s           6   1.000000    
   2.20862762910000       -1.30197723375146     
   1.91795894900000       0.997801160381008     
  0.497153036800000       0.261138608439658     
  0.192182467300000       0.131094635894202     
  0.150531183200000      -6.072315003113300E-002
  7.818867730000000E-002  2.179244354646098E-002
 p           6   1.000000    
   24.5973356357000       0.508401490961319     
   6.48816086650000       0.732530921763091     
   2.22635867440000       0.650727621802643     
  0.776897003100000       0.438755847561292     
  0.283424721400000       0.119446332445697     
  9.862825729999999E-002  1.468246525875056E-002
 
          18 0
 s           6   1.000000    
   2.20862762910000       -1.35472479642662     
   1.91795894900000        1.03841630203676     
  0.497153036800000       0.271773089325402     
  0.192182467300000       0.136428478417288     
  0.150531183200000      -7.083734468157833E-002
  7.818867730000000E-002  2.268032683873929E-002
 p           6   1.000000    
   24.5973356357000       0.522961684644038     
   6.48816086650000       0.745781141303593     
   2.22635867440000       0.663030352341732     
  0.776897003100000       0.446362954812904     
  0.283424721400000       0.121510361860663     
  9.862825729999999E-002  1.271601201998428E-002
 
          19 0
 s           6   1.000000    
   2.20862762910000       -1.35312009729797     
   1.91795894900000        1.03718067788500     
  0.497153036800000       0.271449558684867     
  0.192182467300000       0.136266208526823     
  0.150531183200000      -7.052882684212931E-002
  7.818867730000000E-002  2.265331490195892E-002
 p           6   1.000000    
   24.5973356357000       0.522530502830205     
   6.48816086650000       0.745390649482007     
   2.22635867440000       0.662667576793394     
  0.776897003100000       0.446138896779912     
  0.283424721400000       0.121449571205738     
  9.862825729999999E-002  1.277483184444143E-002
 
          20 0
 s           8   1.000000    
   337.005012218500       3.771509260284299E-002
   53.3105310515000       6.357035725416760E-002
   12.2082534814000       0.116696563948266     
   3.41882690980000       0.176232628537560     
   1.10879012580000       0.220816670842547     
  0.478717798300000       0.126642630723845     
  0.212137087700000       8.876526817334844E-002
  6.905810860000000E-002  1.297794222329136E-003
 
          21 0
 s           8   1.000000    
   337.005012218500       3.505517914892167E-002
   53.3105310515000       6.121431716867155E-002
   12.2082534814000       0.109490077601300     
   3.41882690980000       0.167788378592715     
   1.10879012580000       0.206605658384962     
  0.478717798300000       0.123963493072193     
  0.212137087700000       8.689040497176988E-002
  6.905810860000000E-002  6.522064193774349E-003
 
          22 0
 s           8   1.000000    
   337.005012218500       3.517253695170734E-002
   53.3105310515000       6.131973423189502E-002
   12.2082534814000       0.109808740005988     
   3.41882690980000       0.168163693406727     
   1.10879012580000       0.207233600330918     
  0.478717798300000       0.124086009059436     
  0.212137087700000       8.697614861860191E-002
  6.905810860000000E-002  6.295228938509653E-003
 
          23 0
 s           8   1.000000    
   337.005012218500       3.513047191290933E-002
   53.3105310515000       6.128196426124828E-002
   12.2082534814000       0.109694527799009     
   3.41882690980000       0.168029196062028     
   1.10879012580000       0.207008534193001     
  0.478717798300000       0.124042139531570     
  0.212137087700000       8.694544629911499E-002
  6.905810860000000E-002  6.376572161128225E-003
 
          24 0
 s           8   1.000000    
   337.005012218500       3.577468767050456E-002
   53.3105310515000       6.185853748312141E-002
   12.2082534814000       0.111442762469515     
   3.41882690980000       0.170085497243250     
   1.10879012580000       0.210454172771701     
  0.478717798300000       0.124708510278980     
  0.212137087700000       8.741180097075645E-002
  6.905810860000000E-002  5.126161365350682E-003
 
          25 0
 s           8   1.000000    
   337.005012218500       3.554270007938652E-002
   53.3105310515000       6.165137017490264E-002
   12.2082534814000       0.110813430390113     
   3.41882690980000       0.169345870334661     
   1.10879012580000       0.209213664558610     
  0.478717798300000       0.124469901263067     
  0.212137087700000       8.724481429973698E-002
  6.905810860000000E-002  5.577598472116752E-003
 
          26 0
 s           6   1.000000    
   2.69507309610000       -1.15416649864896     
   2.24947021280000       0.952988869027362     
  0.611851695800000       0.239880207155459     
  0.303726665600000       9.164541238348850E-002
  0.171628270400000       3.189708681338718E-002
  7.154913430000000E-002  7.320944332288304E-003
 p           6   1.000000    
   27.5476401720000       0.974374782132114     
   7.12656627820000        1.22943797512574     
   2.35805520400000       0.940643348472228     
  0.845047262300000       0.489474938466360     
  0.301063057900000       0.126513145220720     
  9.457452580000000E-002  8.972658995988760E-003
 
          27 0
 s           6   1.000000    
   2.69507309610000       -1.14278058032865     
   2.24947021280000       0.943450309631460     
  0.611851695800000       0.237471146144862     
  0.303726665600000       9.072740018068293E-002
  0.171628270400000       3.157004945346105E-002
  7.154913430000000E-002  8.701182681263551E-003
 p           6   1.000000    
   27.5476401720000       0.953726237437722     
   7.12656627820000        1.21308236875335     
   2.35805520400000       0.921732839311057     
  0.845047262300000       0.482238357233796     
  0.301063057900000       0.125081019023131     
  9.457452580000000E-002  1.083944152074399E-002
 
          28 0
 s           6   1.000000    
   2.20862762910000       -1.42173845955855     
   1.91795894900000        1.09001823304025     
  0.497153036800000       0.285284352303213     
  0.192182467300000       0.143205152570006     
  0.150531183200000      -8.376814975597448E-002
  7.818867730000000E-002  2.380839991641783E-002
 p           6   1.000000    
   24.5973356357000       0.540341111356529     
   6.48816086650000       0.761420285892209     
   2.22635867440000       0.677570442284334     
  0.776897003100000       0.455329657190560     
  0.283424721400000       0.123943027703580     
  9.862825729999999E-002  1.031424236433460E-002
 
          29 0
 s           6   1.000000    
   2.20862762910000       -1.30205054042103     
   1.91795894900000       0.997857604890817     
  0.497153036800000       0.261153387584524     
  0.192182467300000       0.131102048563076     
  0.150531183200000      -6.073716800625099E-002
  7.818867730000000E-002  2.179367746974767E-002
 p           6   1.000000    
   24.5973356357000       0.508422292031127     
   6.48816086650000       0.732549943976884     
   2.22635867440000       0.650745273690782     
  0.776897003100000       0.438766774684309     
  0.283424721400000       0.119449297428894     
  9.862825729999999E-002  1.467968453307159E-002
 
          30 0
 s           6   1.000000    
   2.20862762910000       -1.35469663156401     
   1.91795894900000        1.03839461497919     
  0.497153036800000       0.271767410877007     
  0.192182467300000       0.136425630337405     
  0.150531183200000      -7.083192928571111E-002
  7.818867730000000E-002  2.267985273867667E-002
 p           6   1.000000    
   24.5973356357000       0.522954122989077     
   6.48816086650000       0.745774294245651     
   2.22635867440000       0.663023991162127     
  0.776897003100000       0.446359026148092     
  0.283424721400000       0.121509295950347     
  9.862825729999999E-002  1.271704385930707E-002
 
          31 0
 s           6   1.000000    
   2.20862762910000       -1.35293619944257     
   1.91795894900000        1.03703907595172     
  0.497153036800000       0.271412482231251     
  0.192182467300000       0.136247612474451     
  0.150531183200000      -7.049347414128151E-002
  7.818867730000000E-002  2.265021934735822E-002
 p           6   1.000000    
   24.5973356357000       0.522481043397828     
   6.48816086650000       0.745345849936724     
   2.22635867440000       0.662625957848455     
  0.776897003100000       0.446113190999079     
  0.283424721400000       0.121442596790499     
  9.862825729999999E-002  1.278157654645917E-002
 
          32 0
 s           8   1.000000    
   337.005012218500       3.771455419397739E-002
   53.3105310515000       6.356988760976494E-002
   12.2082534814000       0.116695108732127     
   3.41882690980000       0.176230932877629     
   1.10879012580000       0.220813798953901     
  0.478717798300000       0.126642109748834     
  0.212137087700000       8.876490362834263E-002
  6.905810860000000E-002  1.298869828115915E-003
 
          33 0
 s           8   1.000000    
   337.005012218500       3.517171508030847E-002
   53.3105310515000       6.131899643983194E-002
   12.2082534814000       0.109806508593075     
   3.41882690980000       0.168161065885777     
   1.10879012580000       0.207229203067356     
  0.478717798300000       0.124085152407328     
  0.212137087700000       8.697554908685336E-002
  6.905810860000000E-002  6.296818635771893E-003
 
          34 0
 s           8   1.000000    
   337.005012218500       3.505994143583234E-002
   53.3105310515000       6.121859746421596E-002
   12.2082534814000       0.109503009899121     
   3.41882690980000       0.167803613356079     
   1.10879012580000       0.206631141408894     
  0.478717798300000       0.123968472181841     
  0.212137087700000       8.689388964700670E-002
  6.905810860000000E-002  6.512865781261236E-003
 
          35 0
 s           8   1.000000    
   337.005012218500       3.513511648428463E-002
   53.3105310515000       6.128613542610901E-002
   12.2082534814000       0.109707138830655     
   3.41882690980000       0.168044048012329     
   1.10879012580000       0.207033385188371     
  0.478717798300000       0.124046985781482     
  0.212137087700000       8.694883797630341E-002
  6.905810860000000E-002  6.367592798726286E-003
 
          36 0
 s           8   1.000000    
   337.005012218500       3.577447429043564E-002
   53.3105310515000       6.185834717302880E-002
   12.2082534814000       0.111442183731348     
   3.41882690980000       0.170084817391672     
   1.10879012580000       0.210453031917596     
  0.478717798300000       0.124708291515460     
  0.212137087700000       8.741164787373357E-002
  6.905810860000000E-002  5.126577194055177E-003
 
          37 0
 s           8   1.000000    
   337.005012218500       3.553714264764708E-002
   53.3105310515000       6.164640092883862E-002
   12.2082534814000       0.110798351200836     
   3.41882690980000       0.169328140040943     
   1.10879012580000       0.209183943180511     
  0.478717798300000       0.124464166393279     
  0.212137087700000       8.724080081438935E-002
  6.905810860000000E-002  5.588396978947106E-003
 
          38 0
 s           6   1.000000    
   2.69507309610000       -1.15416935875337     
   2.24947021280000       0.952991265286128     
  0.611851695800000       0.239880812367059     
  0.303726665600000       9.164564300583412E-002
  0.171628270400000       3.189716898252123E-002
  7.154913430000000E-002  7.320595454984993E-003
 p           6   1.000000    
   27.5476401720000       0.974379938332233     
   7.12656627820000        1.22944202742857     
   2.35805520400000       0.940648067297800     
  0.845047262300000       0.489476735216537     
  0.301063057900000       0.126513498733009     
  9.457452580000000E-002  8.972186071853232E-003
 
          39 0
 s           6   1.000000    
   2.69507309610000       -1.14280752606495     
   2.24947021280000       0.943472881535820     
  0.611851695800000       0.237476846800576     
  0.303726665600000       9.072957254114959E-002
  0.171628270400000       3.157082324362923E-002
  7.154913430000000E-002  8.697936347309055E-003
 p           6   1.000000    
   27.5476401720000       0.953775376590167     
   7.12656627820000        1.21312158712186     
   2.35805520400000       0.921777873484792     
  0.845047262300000       0.482255674318386     
  0.301063057900000       0.125084465232488     
  9.457452580000000E-002  1.083506164835542E-002
 
          40 0
 s           6   1.000000    
   2.20862762910000       -1.42177329678530     
   1.91795894900000        1.09004505903704     
  0.497153036800000       0.285291376340583     
  0.192182467300000       0.143208675513079     
  0.150531183200000      -8.377489589876227E-002
  7.818867730000000E-002  2.380898636382295E-002
 p           6   1.000000    
   24.5973356357000       0.540349836732487     
   6.48816086650000       0.761428087318682     
   2.22635867440000       0.677577700997569     
  0.776897003100000       0.455334126711345     
  0.283424721400000       0.123944240209078     
  9.862825729999999E-002  1.031302103597644E-002
 
          41 0
 s           6   1.000000    
   2.20862762910000       -1.30197530492206     
   1.91795894900000       0.997799675225178     
  0.497153036800000       0.261138219573970     
  0.192182467300000       0.131094440853649     
  0.150531183200000      -6.072278119460229E-002
  7.818867730000000E-002  2.179241107973639E-002
 p           6   1.000000    
   24.5973356357000       0.508400943626286     
   6.48816086650000       0.732530421231277     
   2.22635867440000       0.650727157328612     
  0.776897003100000       0.438755560035494     
  0.283424721400000       0.119446254427978     
  9.862825729999999E-002  1.468253842642885E-002
 
          42 0
 s           6   1.000000    
   2.20862762910000       -1.35467902073692     
   1.91795894900000        1.03838105457166     
  0.497153036800000       0.271763860276653     
  0.192182467300000       0.136423849499971     
  0.150531183200000      -7.082854317399702E-002
  7.818867730000000E-002  2.267955629504801E-002
 p           6   1.000000    
   24.5973356357000       0.522949394750817     
   6.48816086650000       0.745770012820386     
   2.22635867440000       0.663020013555762     
  0.776897003100000       0.446356569575726     
  0.283424721400000       0.121508629442497     
  9.862825729999999E-002  1.271768905393387E-002
 
          43 0
 s           6   1.000000    
   2.20862762910000       -1.35307790593690     
   1.91795894900000        1.03714819040134     
  0.497153036800000       0.271441052298984     
  0.192182467300000       0.136261942067101     
  0.150531183200000      -7.052071587398302E-002
  7.818867730000000E-002  2.265260469427965E-002
 p           6   1.000000    
   24.5973356357000       0.522519156279658     
   6.48816086650000       0.745380372098862     
   2.22635867440000       0.662658029051067     
  0.776897003100000       0.446132999672216     
  0.283424721400000       0.121447971220396     
  9.862825729999999E-002  1.277637919727169E-002
 
          44 0
 s           8   1.000000    
   337.005012218500       3.771292485439007E-002
   53.3105310515000       6.356846634755323E-002
   12.2082534814000       0.116690704930096     
   3.41882690980000       0.176225801415872     
   1.10879012580000       0.220805107997016     
  0.478717798300000       0.126640533113433     
  0.212137087700000       8.876380039959775E-002
  6.905810860000000E-002  1.302124793474205E-003
 
          45 0
 s           8   1.000000    
   337.005012218500       3.520096758134157E-002
   53.3105310515000       6.134525236926012E-002
   12.2082534814000       0.109885928362592     
   3.41882690980000       0.168254578620757     
   1.10879012580000       0.207385710357487     
  0.478717798300000       0.124115631164281     
  0.212137087700000       8.699687976116185E-002
  6.905810860000000E-002  6.240227323558839E-003
 
          46 0
 s           8   1.000000    
   337.005012218500       3.509636797857073E-002
   53.3105310515000       6.125133013287746E-002
   12.2082534814000       0.109601925093116     
   3.41882690980000       0.167920130077066     
   1.10879012580000       0.206826055469608     
  0.478717798300000       0.124006536203912     
  0.212137087700000       8.692052906746954E-002
  6.905810860000000E-002  6.442489645990535E-003
 
          47 0
 s           8   1.000000    
   337.005012218500       3.505018280945147E-002
   53.3105310515000       6.120982627709092E-002
   12.2082534814000       0.109476509607012     
   3.41882690980000       0.167772394650538     
   1.10879012580000       0.206578922795926     
  0.478717798300000       0.123958268572049     