[Molden Format]
[Title]
[Atoms] AU
O      1     8  0.17433250629226E+01  0.10658553473761E+00 -0.60051863702385E-01
H      2     1  0.10859042629909E+01  0.18219178220021E+01 -0.38686075523622E+00
H      3     1  0.10861427653082E+01 -0.11305264005978E+01 -0.12925619194086E+01
H      4     1  0.36076325947328E+01  0.84525931771734E-01  0.12262998869783E-01
[GTO]
           1 0
 s           6   1.000000    
   3.48359494310000       -1.34200831018286     
   2.85986576440000        1.14230591008523     
  0.740681029000000       0.304133260792388     
  0.344926919200000       8.337228418134225E-002
  0.261978532900000       4.046322353335539E-002
  9.461635039999999E-002  7.404787844539345E-003
 p           6   1.000000    
   37.6414713255000        1.57561865148018     
   9.71308856170000        1.90242463894973     
   3.13717714760000        1.41676229473363     
   1.12138051620000       0.674190435041831     
  0.398077926500000       0.188898920745207     
  0.123047771000000       9.651078737734279E-003
 
           2 0
 s           8   1.000000    
   337.005012218500       4.000340725081986E-002
   53.3105310515000       6.553813320528638E-002
   12.2082534814000       0.122867831876654     
   3.41882690980000       0.183386453607163     
   1.10879012580000       0.233004496944079     
  0.478717798300000       0.128773731340160     
  0.212137087700000       9.025633889601492E-002
  6.905810860000000E-002 -3.344349483014381E-003
 
           3 0
 s           8   1.000000    
   337.005012218500       4.000321519292450E-002
   53.3105310515000       6.553797049843615E-002
   12.2082534814000       0.122867315101238     
   3.41882690980000       0.183385857773689     
   1.10879012580000       0.233003475589659     
  0.478717798300000       0.128773559672977     
  0.212137087700000       9.025621879769555E-002
  6.905810860000000E-002 -3.343953750883219E-003
 
           4 0
 s           8   1.000000    
   337.005012218500       4.000342856930113E-002
   53.3105310515000       6.553815126576711E-002
   12.2082534814000       0.122867889238860     
   3.41882690980000       0.183386519744800     
   1.10879012580000       0.233004610314694     
  0.478717798300000       0.128773750395190     
  0.212137087700000       9.025635222690878E-002
  6.905810860000000E-002 -3.344393409459364E-003
 
[MO]
Sym=     1a
Ene=   -1.68467366197055     
Spin= Alpha
Occup=     2.00000000
           1  0.843879721072096     
           2  4.701168638301167E-003
           3  3.900995630741509E-003
           4 -1.275494542715970E-002
           5  0.108952006122472     
           6  0.108927643635224     
           7  0.108955354713027     
Sym=     2a
Ene=  -0.882277304671105     
Spin= Alpha
Occup=     2.00000000
           1 -1.978914093554744E-004
           2 -0.581725892784019     
           3 -0.312441406275500     
           4 -0.311629360742948     
           5 -1.381967682067326E-002
           6  0.308947051158778     
           7 -0.294814195064378     
Sym=     3a
Ene=  -0.882230027679417     
Spin= Alpha
Occup=     2.00000000
           1  3.862611224087528E-005
           2 -0.367867992547580     
           3  0.628204078383874     
           4  5.690493039771024E-002
           5  0.348506839086230     
           6 -0.162210967865102     
           7 -0.186358120656304     
Sym=     4a
Ene=  -0.791767402216954     
Spin= Alpha
Occup=     2.00000000
           1  0.218193141721429     
           2 -0.315587380753376     
           3 -0.261954756953730     
           4  0.851788088763696     
           5 -0.106638835023225     
           6 -0.106741948800365     
           7 -0.106591494782289     
Sym=     5a
Ene=  -0.110586338766933     
Spin= Alpha
Occup=     0.00000000
           1  -1.04834814454536     
           2 -0.142024341270563     
           3 -0.118085012599100     
           4  0.377627701710688     
           5  0.691926439598623     
           6  0.687969947029795     
           7  0.693274747378751     
Sym=     6a
Ene=  -4.070208521555244E-002
Spin= Alpha
Occup=     0.00000000
           1 -4.055925092507022E-004
           2 -0.551442893252683     
           3  0.752917319324725     
           4  2.736771756546968E-002
           5 -0.973133636842221     
           6  0.356836669614396     
           7  0.617111448509291     
Sym=     7a
Ene=  -4.045614155099925E-002
Spin= Alpha
Occup=     0.00000000
           1 -3.248893622669004E-003
           2  0.685708857628806     
           3  0.487481696229881     
           4  0.404878688742310     
           5 -0.148105835191309     
           6  0.920276905548525     
           7 -0.765667331597318     
