[Molden Format]
[Title]
[Atoms] AU
N      1     7  0.16798632081581E+00  0.20980175258041E+01 -0.18478455976944E-04
N      2     7  0.44818378159277E-01 -0.20690154247764E+01 -0.10743432886339E-03
C      3     6 -0.13008851042264E+01  0.64930268424858E-02 -0.15243953460211E-03
C      4     6 -0.40887482684564E+01  0.10687408085935E+00 -0.35791761904877E-03
C      5     6  0.26245823664381E+01  0.12745232232070E+01  0.52074788587871E-04
C      6     6  0.24993176256888E+01 -0.12836233199988E+01 -0.30926168778177E-04
H      7     1 -0.41431346321470E+00  0.38995525534986E+01  0.22013584509739E-04
H      8     1 -0.47995894305531E+01  0.10829673213922E+01  0.16682006319099E+01
H      9     1 -0.47992756039989E+01  0.10811640796541E+01 -0.16701095941398E+01
H     10     1 -0.47962271670469E+01 -0.18204159293299E+01  0.55047846648333E-03
H     11     1  0.41951072915518E+01  0.25584368991513E+01  0.11963363404623E-03
H     12     1  0.40361819369868E+01 -0.26037226331258E+01 -0.62851489828151E-04
[GTO]
           1 0
 s           6   1.000000    
   2.69507309610000       -1.15003020998999     
   2.24947021280000       0.949523503258283     
  0.611851695800000       0.239004982605324     
  0.303726665600000       9.131189688718563E-002
  0.171628270400000       3.177826341850910E-002
  7.154913430000000E-002  7.824344318346634E-003
 p           6   1.000000    
   27.5476401720000       0.966901218468607     
   7.12656627820000        1.22354741744867     
   2.35805520400000       0.933801934098924     
  0.845047262300000       0.486865167062492     
  0.301063057900000       0.125998561462858     
  9.457452580000000E-002  9.654521023706971E-003
 
           2 0
 s           6   1.000000    
   2.69507309610000       -1.13747397257890     
   2.24947021280000       0.939005243290295     
  0.611851695800000       0.236348530782727     
  0.303726665600000       9.029959994068557E-002
  0.171628270400000       3.141767725051952E-002
  7.154913430000000E-002  9.338676608507143E-003
 p           6   1.000000    
   27.5476401720000       0.944025778005396     
   7.12656627820000        1.20531374329746     
   2.35805520400000       0.912839928044245     
  0.845047262300000       0.478811222688687     
  0.301063057900000       0.124397283461847     
  9.457452580000000E-002  1.169841980019255E-002
 
           3 0
 s           6   1.000000    
   2.20862762910000       -1.42817356535721     
   1.91795894900000        1.09497352126872     
  0.497153036800000       0.286581830168498     
  0.192182467300000       0.143855909185114     
  0.150531183200000      -8.501472054029270E-002
  7.818867730000000E-002  2.391672831088567E-002
 p           6   1.000000    
   24.5973356357000       0.541947571062787     
   6.48816086650000       0.762855763110868     
   2.22635867440000       0.678906155878906     
  0.776897003100000       0.456151997681056     
  0.283424721400000       0.124166113475597     
  9.862825729999999E-002  1.008911033479098E-002
 
           4 0
 s           6   1.000000    
   2.20862762910000       -1.29530828612925     
   1.91795894900000       0.992666229658982     
  0.497153036800000       0.259794104443545     
  0.192182467300000       0.130420282466374     
  0.150531183200000      -5.944833209940773E-002
  7.818867730000000E-002  2.168018979642478E-002
 p           6   1.000000    
   24.5973356357000       0.506502396548564     
   6.48816086650000       0.730793137947675     
   2.22635867440000       0.649115143596254     
  0.776897003100000       0.437757521286357     
  0.283424721400000       0.119175443371947     
  9.862825729999999E-002  1.493600147541513E-002
 
           5 0
 s           6   1.000000    
   2.20862762910000       -1.34506152101312     
   1.91795894900000        1.03097556445085     
  0.497153036800000       0.269824838335736     
  0.192182467300000       0.135451313991224     
  0.150531183200000      -6.898027719895422E-002
  7.818867730000000E-002  2.251766521670655E-002
 p           6   1.000000    
   24.5973356357000       0.520354199166193     
   6.48816086650000       0.743417928326205     
   2.22635867440000       0.660835071484513     
  0.776897003100000       0.445006859120816     
  0.283424721400000       0.121142427976729     
  9.862825729999999E-002  1.307115965025289E-002
 
           6 0
 s           6   1.000000    
   2.20862762910000       -1.35683510348920     
   1.91795894900000        1.04004124810339     
  0.497153036800000       0.272198558432340     
  0.192182467300000       0.136641876472364     
  0.150531183200000      -7.124314926897114E-002
  7.818867730000000E-002  2.271584973694501E-002
 p           6   1.000000    
   24.5973356357000       0.523527624266958     
   6.48816086650000       0.746293495141666     
   2.22635867440000       0.663506360000103     
  0.776897003100000       0.446656923219961     
  0.283424721400000       0.121590120091833     
  9.862825729999999E-002  1.263875391010169E-002
 
           7 0
 s           8   1.000000    
   337.005012218500       3.718614077674690E-002
   53.3105310515000       6.310750825970071E-002
   12.2082534814000       0.115266208788790     
   3.41882690980000       0.174564029362106     
   1.10879012580000       0.217994295271964     
  0.478717798300000       0.126126533661961     
  0.212137087700000       8.840412938951984E-002
  6.905810860000000E-002  2.350874491523540E-003
 
           8 0
 s           8   1.000000    
   337.005012218500       3.437928172360655E-002
   53.3105310515000       6.060465501500280E-002
   12.2082534814000       0.107653589103329     
   3.41882690980000       0.165622084170521     
   1.10879012580000       0.202987536245683     
  0.478717798300000       0.123250437859974     
  0.212137087700000       8.639135703011691E-002
  6.905810860000000E-002  7.822139692094568E-003
 
           9 0
 s           8   1.000000    
   337.005012218500       3.437929343520892E-002
   53.3105310515000       6.060466561601211E-002
   12.2082534814000       0.107653620942908     
   3.41882690980000       0.165622121776444     
   1.10879012580000       0.202987598962398     
  0.478717798300000       0.123250450324461     
  0.212137087700000       8.639136575383748E-002
  6.905810860000000E-002  7.822117257754977E-003
 
          10 0
 s           8   1.000000    
   337.005012218500       3.462856129994085E-002
   53.3105310515000       6.083000594841547E-002
   12.2082534814000       0.108331149940379     
   3.41882690980000       0.166421977269390     
   1.10879012580000       0.204322265823529     
  0.478717798300000       0.123514890574807     
  0.212137087700000       8.657644251433064E-002
  6.905810860000000E-002  7.343904108638642E-003
 
          11 0
 s           8   1.000000    
   337.005012218500       3.477765086736835E-002
   53.3105310515000       6.096450597570880E-002
   12.2082534814000       0.108736252816978     
   3.41882690980000       0.166899857531297     
   1.10879012580000       0.205120365034799     
  0.478717798300000       0.123672237097420     
  0.212137087700000       8.668656515620039E-002
  6.905810860000000E-002  7.057184830057384E-003
 
          12 0
 s           8   1.000000    
   337.005012218500       3.509703155345863E-002
   53.3105310515000       6.125192630001410E-002
   12.2082534814000       0.109603726954599     
   3.41882690980000       0.167922252418836     
   1.10879012580000       0.206829606104176     
  0.478717798300000       0.124007229263958     
  0.212137087700000       8.692101411074436E-002
  6.905810860000000E-002  6.441207325448809E-003
 
[MO]
Sym=     1a
Ene=   -1.35935364008533     
Spin= Alpha
Occup=     2.00000000
           1 -0.334833479511090     
           2 -1.014133196572068E-002
           3  5.052963553208742E-002
           4  1.324243894273787E-006
           5 -0.315632235688713     
           6 -7.998353234165473E-003
           7 -3.152026313438013E-002
           8 -4.063330929559069E-007
           9 -0.282174061291064     
          10 -4.472337422805479E-002
          11  1.097375050908408E-003
          12 -2.416811887678164E-006
          13 -0.108393050526917     
          14 -3.742777700467802E-002
          15  5.127780127927295E-004
          16 -1.748333800485704E-006
          17 -0.214429026297908     
          18  5.039988051226640E-002
          19  2.279105153911032E-002
          20  2.523200333562295E-006
          21 -0.207880268649812     
          22  4.990308719920988E-002
          23 -2.359293000917767E-002
          24  5.609736801784565E-007
          25 -8.337634651364473E-002
          26 -2.747684294547858E-002
          27 -2.747364956948415E-002
          28 -2.943632381082572E-002
          29 -5.318716447304142E-002
          30 -5.035991113209123E-002
Sym=     2a
Ene=  -0.904175556299008     
Spin= Alpha
Occup=     2.00000000
           1 -0.477060737175933     
           2 -5.433941531721428E-002
           3 -4.790489195290014E-002
           4 -3.140992853921368E-006
           5  0.462733627307909     
           6  7.382894373961908E-003
           7  1.711685733315488E-002
           8 -7.132182682494428E-007
           9  0.102235552574007     
          10 -2.942432832617811E-002
          11 -0.160916494520684     
          12 -5.453719372512927E-006
          13  0.132658493784063     
          14  1.359465129666280E-002
          15 -1.129513388278266E-002
          16  5.870748385946361E-007
          17 -0.225307819335673     
          18  5.726369164409820E-002
          19 -7.739100435546378E-002
          20  5.315369887113484E-007
          21  0.132902320393874     
          22 -6.928724585249876E-002
          23 -7.901853934878003E-002
          24 -3.940169812659232E-006
          25 -0.134530186699535     
          26  3.169303313928058E-002
          27  3.170014394463507E-002
          28  4.249647941474858E-002
          29 -6.151638046366200E-002
          30  3.283162708230911E-002
Sym=     3a
Ene=  -0.881084994535493     
Spin= Alpha
Occup=     2.00000000
           1  0.123895832222743     
           2 -0.109826394730314     
           3  6.748296803752454E-003
           4 -4.963489693475353E-006
           5 -0.144128422070073     
           6 -8.351388057608908E-002
           7  3.688685814144705E-003
           8 -3.021815659569044E-006
           9  0.238726636397761     
          10 -0.134075697409900     
          11  5.942742691911568E-002
          12 -7.589666458815430E-006
          13  0.418665973904667     
          14  3.456396143424315E-002
          15  5.532274195271063E-003
          16  1.486519945336506E-006
          17 -0.206658793817964     
          18 -2.341134140492713E-002
          19  6.221755473712888E-002
          20  1.055171626197464E-006
          21 -0.289590454083539     
          22  3.572814679152070E-003
          23 -1.769456147774728E-002
          24 -6.494552242285748E-007
          25  4.220063011046758E-002
          26  0.118937521884292     
          27  0.118932494667372     
          28  0.109097512123354     
          29 -5.719081452696102E-002
          30 -7.830618773194385E-002
Sym=     4a
Ene=  -0.704627603729720     
Spin= Alpha
Occup=     2.00000000
           1 -0.224174161622660     
           2  0.147036280321131     
           3  1.005564978511095E-002
           4  4.467687380562412E-006
           5 -0.248426505726855     
           6  6.599233779430523E-002
           7 -4.498422593113537E-002
           8  1.381735603034328E-006
           9 -0.175180865252568     
          10 -0.135950798029512     
          11  3.552848759126040E-003
          12 -1.228780257074040E-005
          13  0.375068654777581     
          14 -6.749245090204654E-002
          15  5.275027002173204E-003
          16 -7.209731271646153E-006
          17  0.352223582255363     
          18  9.008470873810712E-002
          19 -6.884853099679213E-002
          20  4.880551375700208E-007
          21  0.260181484313625     
          22  0.113573248932598     
          23  9.266843656332430E-002
          24  5.645711051191711E-006
          25 -7.645285192144499E-002
          26  0.122766500025761     
          27  0.122764748376318     
          28  0.111060662666415     
          29  0.112863988294821     
          30  8.093464788045591E-002
Sym=     5a
Ene=  -0.566142822302883     
Spin= Alpha
Occup=     2.00000000
           1  0.158792830094161     
           2 -0.226882222112769     
           3  0.422173492785352     
           4  7.273576584635479E-006
           5  0.159597982561315     
           6  0.166444788430346     
           7 -0.169599744811529     
           8  3.354544783326723E-006
           9 -0.162082679533737     
          10 -0.122753391549219     
          11  7.789329025627457E-002
          12 -3.220069404767914E-006
          13  1.286320970108513E-002
          14 -1.405569662713287E-002
          15  4.143797078999115E-002
          16  3.107755943826735E-006
          17 -0.169365017873707     
          18  0.116731427559227     
          19  6.437917945091064E-003
          20  5.865501140080733E-006
          21  0.262488100031545     
          22  4.609897285547378E-002
          23 -0.200159374759485     
          24 -4.133283491435999E-006
          25  0.274159875847335     
          26  2.434730502850599E-002
          27  2.431640999651202E-002
          28 -5.114342342380363E-004
          29 -3.307126366087094E-002
          30  0.141804204181692     
Sym=     6a
Ene=  -0.561648873547415     
Spin= Alpha
Occup=     2.00000000
           1  8.264266873867696E-003
           2  0.355568949637063     
           3  0.339862716286802     
           4  2.912259764392108E-005
           5  0.284337185038938     
           6 -0.150416976147960     
           7  5.662436584113408E-004
           8 -5.149825143387056E-006
           9 -0.104255945223237     
          10 -6.989670474305505E-002
          11 -0.334505326787100     
          12 -8.155834239132997E-006
          13  3.185041040276346E-002
          14 -2.580308889234110E-002
          15 -7.846367729210091E-002
          16 -2.236974517254996E-006
          17  0.133776066913570     
          18 -2.248751048880135E-002
          19  0.270703682295665     
          20  8.277651412933972E-006
          21 -0.213155035856862     
          22 -5.784617671017641E-002
          23 -4.580460169836869E-002
          24 -9.728539347089816E-007
          25  0.104797139700324     
          26  2.710425609004649E-003
          27  2.735655612638406E-003
          28  4.966390685941256E-002
          29  0.111294505774110     
          30 -8.559055338813468E-002
Sym=     7a
Ene=  -0.515541190075646     
Spin= Alpha
Occup=     2.00000000
           1  0.135936283349225     
           2  0.260546973694411     
           3 -0.113443194322315     
           4  8.391088067243154E-006
           5  2.481299707969446E-002
           6  0.274111460296968     
           7  3.404784733308413E-003
           8  9.787058003771292E-006
           9 -0.306711097272869     
          10  0.172790307181344     
          11  6.311049532956786E-002
          12  6.343228229536904E-006
          13  0.155365638748658     
          14 -0.267153054385432     
          15  3.774698657278541E-002
          16 -2.586304341920458E-005
          17 -0.173259666151918     
          18 -0.330046800731242     
          19  3.954334015754701E-002
          20 -7.667701256801240E-006
          21  1.773575637037228E-003
          22 -0.220119803148991     
          23 -0.116031142027762     
          24 -7.439836640813589E-006
          25 -4.061164018652787E-002
          26  0.121681744506340     
          27  0.121663165320998     
          28  8.863972053274585E-002
          29 -0.183790914257165     
          30 -2.845531276009413E-002
Sym=     8a
Ene=  -0.488241720115532     
Spin= Alpha
Occup=     2.00000000
           1 -4.217881763039379E-006
           2 -3.114291162622874E-005
           3 -1.953862338546877E-005
           4  0.524054621089717     
           5  8.304091468796143E-007
           6 -1.582956396999154E-005
           7  3.255714193743336E-006
           8  0.239865386605233     
           9 -5.740997082394223E-006
          10 -1.174208345401556E-005
          11 -9.527466125034086E-006
          12  0.381716592443494     
          13  6.334398823595393E-006
          14 -2.851657259762469E-005
          15  3.999407243267774E-006
          16  0.173137238538175     
          17  5.326228293115609E-006
          18 -4.012606020084726E-006
          19 -1.863282808829736E-005
          20  0.254618985143627     
          21 -2.073802411659689E-006
          22 -4.003561242500227E-006
          23  8.868730604591342E-006
          24  0.176071953780396     
          25  1.990412020802231E-006
          26  8.828447023969074E-002
          27 -8.832065272164571E-002
          28  5.049024289801532E-005
          29 -1.637771701539785E-007
          30 -6.096819483739799E-006
Sym=     9a
Ene=  -0.449345528230584     
Spin= Alpha
Occup=     2.00000000
           1 -9.804209164417212E-002
           2 -0.120554602331111     
           3 -0.189761094886458     
           4 -1.823157583117300E-005
           5  0.195974386989057     
           6  0.236414349593797     
           7 -0.125831070252819     
           8  7.434825946282059E-006
           9  2.655204188739639E-002
          10  3.314547699520274E-002
          11  0.236512552089375     
          12  6.520910768807428E-006
          13  3.406623442535653E-003
          14 -5.510855669515828E-003
          15  0.228464614137225     
          16  1.676346549384053E-005
          17  0.128030759994233     
          18  0.242119333561592     
          19  0.344315853942221     
          20  1.364222096698944E-005
          21 -0.176833498544703     
          22 -0.202183241688287     
          23 -0.202852117037683     
          24 -9.334466437428914E-006
          25 -0.143813658764517     
          26  7.299459145021124E-002
          27  7.284236745920383E-002
          28 -0.133477617944267     
          29  0.358153066471962     
          30 -9.670730940160703E-002
Sym=    10a
Ene=  -0.442481219226138     
Spin= Alpha
Occup=     2.00000000
           1 -8.257599724660240E-002
           2 -0.329297642722686     
           3  0.180566688840001     
           4 -4.410361878062375E-005
           5  0.106869701776283     
           6 -6.365128118611138E-002
           7  0.251449651348257     
           8 -1.190775276774698E-005
           9 -0.135939284550397     
          10  0.304860779418798     
          11 -8.411916263893256E-002
          12  4.278462067884555E-006
          13 -1.851412034720936E-002
          14 -0.330250713499621     
          15  0.101065090633830     
          16  1.136962899732791E-006
          17  2.207166012587687E-002
          18  0.246097797455368     
          19 -0.204782407776566     
          20 -2.467292598220293E-005
          21 -7.452285225048959E-002
          22 -0.121764317741489     
          23  0.306096366148751     
          24 -1.092950387048947E-005
          25  0.199359305093250     
          26  0.125699414143951     
          27  0.125580045003183     
          28  2.164346963437173E-002
          29  7.735282544001842E-002
          30 -0.221629107543575     
Sym=    11a
Ene=  -0.424225832229502     
Spin= Alpha
Occup=     2.00000000
           1 -3.961948206960434E-006
           2  7.142077186925680E-005
           3  4.198730703523699E-006
           4 -0.252209117390782     
           5 -5.962130298607346E-006
           6 -2.819106598123621E-005
           7 -1.592861614702169E-005
           8 -3.454382980251063E-002
           9  7.178649844180034E-006
          10 -4.308426998004896E-005
          11 -1.916556272127388E-005
          12  8.136507419452475E-002
          13  8.425139989203331E-006
          14 -9.981936324222268E-006
          15  5.573970066502874E-005
          16  0.549413688062680     
          17 -6.903772024996162E-007
          18 -4.448799507160562E-005
          19 -7.919952097294541E-007
          20 -0.254477973227732     
          21  1.259806021093483E-005
          22  2.880764576214552E-005
          23  2.543091226549993E-006
          24 -0.163595268043740     
          25 -1.352990348761069E-005
          26  0.340173108975286     
          27 -0.340351147325414     
          28  1.440599269702248E-004
          29 -3.862837043023994E-005
          30  2.126698587489564E-005
Sym=    12a
Ene=  -0.413649850303465     
Spin= Alpha
Occup=     2.00000000
           1  0.174494288744418     
           2 -0.164228886651578     
           3 -0.210217747269469     
           4 -4.220055713299321E-005
           5  5.067532744691532E-003
           6 -0.174670606845256     
           7 -1.626879186361108E-002
           8  3.012178593391982E-006
           9  3.780274030129861E-003
          10  0.334051887978720     
          11  2.059533351397103E-002
          12  4.361752932911214E-005
          13 -4.196989854742147E-002
          14 -0.330177263793475     
          15 -0.322599953576051     
          16  1.667801785648383E-005
          17 -8.392074100908846E-002
          18  0.143574814389194     
          19  0.176183343047797     
          20 -2.551504628129764E-005
          21 -6.135121773675103E-002
          22  0.251880673667950     
          23 -0.226608774294043     
          24 -2.237700407011579E-005
          25 -6.429613781638679E-002
          26 -3.739120900306060E-002
          27 -3.722482502741209E-002
          28  0.314671078219098     
          29  0.143441632374479     
          30  0.232320112611273     
Sym=    13a
Ene=  -0.397698466105974     
Spin= Alpha
Occup=     2.00000000
           1  3.555789050280118E-002
           2  0.148849322189173     
           3 -2.061598113299905E-002
           4  6.530081887897110E-005
           5  2.605151932499426E-002
           6 -0.346305626131878     
           7  8.449356558406254E-002
           8 -4.864396855206698E-005
           9  6.339471251242849E-002
          10  0.157149053145770     
          11 -0.163218008874131     
          12 -2.074988875302089E-005
          13 -4.771767310022764E-002
          14 -0.120061461465544     
          15  0.451016530225484     
          16 -7.265790233480084E-005
          17 -7.861895547877350E-002
          18 -7.438584877247664E-002
          19  6.521213187204135E-002
          20  3.483027353434709E-005
          21 -5.048565426867029E-003
          22  0.328081291931086     
          23 -0.112011480881810     
          24 -3.542172994342506E-007
          25 -2.231594083915854E-002
          26  0.201604398239943     
          27  0.201336495410181     
          28 -0.317910515245267     
          29 -6.710623000707343E-002
          30  0.262810089227319     
Sym=    14a
Ene=  -0.360057614466773     
Spin= Alpha
Occup=     2.00000000
           1  1.393789102129104E-005
           2  3.314677862286626E-005
           3  1.160364172736401E-005
           4 -0.592182421446525     
           5  5.514382837844917E-005
           6 -7.227341937682723E-005
           7 -6.908553176093291E-005
           8  0.637022887975239     
           9 -1.588842121022921E-005
          10 -7.921958728310124E-006
          11  4.617228865626661E-006
          12  0.121284348340054     
          13 -7.714970233374321E-006
          14 -9.414809473463665E-006
          15  4.813834468400583E-005
          16 -4.584162891823293E-002
          17  8.433811601897266E-006
          18 -8.395179085969436E-006
          19 -1.680071646767251E-005
          20 -0.101241808043332     
          21 -1.292480441103564E-005
          22  2.574643752325389E-005
          23  6.122592842833302E-006
          24  0.391843969881095     
          25 -6.545293255952836E-006
          26 -4.770020921142465E-002
          27  4.775616683406196E-002
          28 -4.428315546044716E-005
          29 -2.072173999735350E-005
          30  1.271494796492625E-006
Sym=    15a
Ene=  -0.343460152143318     
Spin= Alpha
Occup=     2.00000000
           1  0.169828334386442     
           2 -6.610445083930046E-002
           3 -0.148593088007438     
           4  5.077926670218439E-005
           5  0.457506318782703     
           6 -0.279345900052961     
           7 -0.722582517079750     
           8 -8.987647837645010E-005
           9 -0.205290254414520     
          10 -6.814678853620436E-002
          11  0.159950717322957     
          12 -2.997818341525830E-005
          13 -5.882232042844926E-002
          14 -9.441927026735959E-002
          15  3.690221161030458E-002
          16 -2.345812365410471E-005
          17  0.161828227935520     
          18 -3.788254877327080E-002
          19 -0.215802139923267     
          20  1.617283356185314E-005
          21 -0.148143722339664     
          22  0.135008287252701     
          23  0.204382303213510     
          24 -1.874673573683807E-005
          25 -7.009293213913985E-002
          26  2.975790426595893E-002
          27  2.973924575690668E-002
          28  1.929577601507702E-002
          29 -0.117418284091760     
          30 -0.144196547050195     
Sym=    16a
Ene=  -0.312110816923052     
Spin= Alpha
Occup=     2.00000000
           1 -3.591057121224285E-006
           2 -3.787651075783861E-006
           3  4.426277591246952E-007
           4  0.190322777668134     
           5  1.693258552725353E-005
           6 -8.924723044646138E-006
           7 -1.811076165825029E-005
           8  0.241255317678896     
           9 -7.120716649393681E-006
          10 -3.903139630272338E-005
          11 -3.975601892571397E-006
          12  0.502350027232587     
          13 -6.685213517148441E-007
          14  1.712824810758040E-005
          15  2.194640511922149E-005
          16 -0.170115169845334     
          17  2.403165684912813E-006
          18  1.491285699411364E-005
          19  9.060489716534778E-006
          20 -0.570969454411034     
          21 -1.097745118724997E-006
          22  6.854699371762951E-006
          23  2.416591323245949E-005
          24 -0.464367892101826     
          25  9.050902674719209E-007
          26 -0.183552285519144     
          27  0.183676228099058     
          28 -1.191690849389481E-004
          29 -2.417448840006866E-006
          30 -7.102706724876958E-006
Sym=    17a
Ene=   8.425517023005623E-002
Spin= Alpha
Occup=     0.00000000
           1  4.308668921117082E-007
           2  2.280895348785692E-005
           3  3.104891936331533E-005
           4 -0.607345607717299     
           5  5.287612888332195E-006
           6  1.140431785698371E-005
           7  5.236883106593734E-006
           8 -0.431680442896291     
           9  6.697061781178383E-006
          10 -4.872642126228648E-005
          11 -9.383797415436452E-006
          12  0.741292184523499     
          13 -9.393570020127878E-007
          14 -2.463365641717679E-005
          15  1.624882494542767E-005
          16  8.482760667630594E-002
          17  1.657901946180119E-005
          18 -1.589480822944101E-005
          19 -1.285964265795866E-005
          20  0.553404218637877     
          21  2.438377098199311E-006
          22  1.927087322112795E-006
          23  4.992841302699938E-006
          24 -0.194551762298021     
          25 -9.482767759953410E-006
          26 -0.221732047922475     
          27  0.221862306409021     
          28 -1.334385544540402E-004
          29 -1.469169434961333E-005
          30 -3.940075315252098E-006
Sym=    18a
Ene=   0.134932960235809     
Spin= Alpha
Occup=     0.00000000
           1 -3.009455109406393E-005
           2  1.351328227615661E-006
           3  3.705140588896908E-006
           4 -9.733181811068929E-002
           5  1.669210298652199E-005
           6 -2.616250084530310E-005
           7 -9.637562307634325E-007
           8  0.642419068009286     
           9 -1.134089123091718E-005
          10  2.349340763784599E-005
          11  2.433750565909751E-005
          12 -0.327640437088748     
          13  3.009292941877691E-006
          14  1.719312306069931E-005
          15  2.303878062016987E-005
          16 -4.430573795834592E-002
          17  1.473880660128131E-005
          18 -2.666566479554150E-005
          19 -9.635671087095096E-006
          20  0.602120968181059     
          21 -2.020734232928871E-005
          22  1.206629978873172E-005
          23  3.482657398774994E-005
          24 -0.821874614618250     
          25  1.335771715336622E-005
          26  0.100584208312738     
          27 -0.100670402671263     
          28  8.897646277731488E-005
          29 -4.601650619282137E-006
          30  2.538017012331710E-005
Sym=    19a
Ene=   0.270516585818351     
Spin= Alpha
Occup=     0.00000000
           1  -1.19390486885442     
           2  3.348972630698914E-002
           3 -0.235492782050977     
           4  5.604413930104470E-007
           5  4.427004373550516E-002
           6  4.839622130422415E-002
           7 -9.679015754841194E-002
           8 -2.454102356403753E-005
           9  0.377001715025875     
          10  0.142345877306156     
          11  0.307231603353593     
          12  2.477157535898413E-005
          13 -7.345120766374023E-002
          14 -8.404920851501525E-002
          15  0.162003156256069     
          16 -1.359821045790547E-005
          17  0.624275587756744     
          18 -0.247513137852869     
          19  0.146149105476405     
          20 -2.428535727566287E-005
          21 -0.426880211356534     
          22 -7.525406920633557E-002
          23  8.579353415965725E-003
          24  2.503097004785643E-005
          25  0.897039686163675     