6
 energy: -115.725030059500 gnorm: 0.000436004725 xtb: 6.7.1 (edcfbbe)
H           -1.11152602226351       -0.76551842757600        0.67887726749465
C           -0.70722945408387       -0.01442328389803       -0.00490294117518
H           -1.11169407814852       -0.19594758664406       -1.00421998268228
H           -1.02926739427533        0.97079119760213        0.32850353630127
O            0.71083255356287       -0.00285127371181       -0.00113415169536
H            1.03188081520835       -0.85705114577223       -0.29012349824310
