[Molden Format]
[Title]
[Atoms] AU
Zn     1    30  0.00000000000000E+00  0.00000000000000E+00  0.00000000000000E+00
[GTO]
           1 0
 s           5   1.000000    
   1.82046632240000       0.215309087600151     
   1.13274582070000      -0.392095846720230     
  0.315046004900000       7.632008236612296E-003
  0.148617277200000       0.149260945329736     
  5.129314220000000E-002  2.108213732804116E-002
 p           3   1.000000    
   1.22375302100000      -0.154414568826955     
  0.183640111800000       0.125486913228708     
  4.740596480000000E-002  1.270879746416828E-002
 
[MO]
Sym=     1a
Ene=  -0.753987919240428     
Spin= Alpha
Occup=     0.00000000
           1   1.00000000000000     
           2  0.000000000000000E+000
           3  0.000000000000000E+000
           4  0.000000000000000E+000
Sym=     2a
Ene=  -0.623273723162504     
Spin= Alpha
Occup=     0.00000000
           1  0.000000000000000E+000
           2   1.00000000000000     
           3  0.000000000000000E+000
           4  0.000000000000000E+000
Sym=     3a
Ene=  -0.623273723162504     
Spin= Alpha
Occup=     0.00000000
           1  0.000000000000000E+000
           2  0.000000000000000E+000
           3   1.00000000000000     
           4  0.000000000000000E+000
Sym=     4a
Ene=  -0.623273723162504     
Spin= Alpha
Occup=     0.00000000
           1  0.000000000000000E+000
           2  0.000000000000000E+000
           3  0.000000000000000E+000
           4   1.00000000000000     
