[Molden Format]
[Title]
[Atoms] AU
Zn     1    30 -0.94937712126705E-01  0.22981579064322E+00 -0.84078997944310E+00
H      2     1  0.14614150262182E+01 -0.20189988271849E+01  0.44996392439221E+01
C      3     6  0.30709989783416E+01 -0.23285697223192E+01  0.32554945998493E+01
H      4     1  0.48165685112119E+01 -0.23656402847214E+01  0.43411611625659E+01
H      5     1  0.28095967402756E+01 -0.41054833040088E+01  0.22629539053873E+01
O      6     8  0.32119223969165E+01 -0.37992751683608E+00  0.13589518900931E+01
H      7     1  0.31959740364361E+01  0.12485949046432E+01  0.21785050101025E+01
H      8     1  0.44997854101665E+01  0.54125370835844E+00 -0.66732153813286E+01
C      9     6  0.39166016388516E+01  0.80514435467162E+00 -0.47206980570973E+01
H     10     1  0.52931404387485E+01 -0.37445561543707E-01 -0.34420291319215E+01
H     11     1  0.37233234853812E+01  0.28091375707858E+01 -0.43036638293047E+01
O     12     8  0.14573768344933E+01 -0.27373181734910E+00 -0.43408810985351E+01
H     13     1  0.14821865032820E+01 -0.20804079622116E+01 -0.45653790617973E+01
H     14     1 -0.11984270773199E+01  0.18381319573822E+01  0.43409642591679E+01
H     15     1 -0.11900751864209E+01  0.48247347083793E+01  0.58767646803695E+01
H     16     1 -0.48173859283049E+00  0.97606190122700E+01 -0.15136375516878E+01
H     17     1 -0.59556462841023E+00  0.52337900720195E+01 -0.39805340832122E+01
H     18     1  0.16915671588083E+01  0.33592958874936E+01  0.51174503151811E+01
C     19     6 -0.24941129826577E+00  0.36660857460632E+01  0.44662860084823E+01
C     20     6 -0.43446301029580E+00  0.78867773289037E+01 -0.74141684469358E+00
C     21     6 -0.33191365592259E+00  0.49962548110962E+01  0.20068139833642E+01
C     22     6 -0.48071308277220E+00  0.56492998876646E+01 -0.19941481796644E+01
N     23     7 -0.33614278442858E+00  0.74714832830006E+01  0.17940600546813E+01
N     24     7 -0.41129515737105E+00  0.37767270903096E+01 -0.22444038460985E+00
H     25     1  0.22863013530984E+01 -0.49690351927547E+01 -0.19683428415258E+01
H     26     1 -0.38702547716267E-01 -0.55345265434990E+01 -0.43279409599309E+01
H     27     1 -0.60463454274897E+01 -0.60867186950103E+01  0.31105305921752E+01
H     28     1 -0.48719403674208E+01 -0.11226713571267E+01  0.23506318744343E+01
H     29     1  0.75670333751888E+00 -0.79499062922054E+01 -0.21748949202445E+01
C     30     6  0.49357194469488E+00 -0.59222252379674E+01 -0.23678627736308E+01
C     31     6 -0.45916995439481E+01 -0.52834818918990E+01  0.19502466343270E+01
C     32     6 -0.15212812525580E+01 -0.51323727085206E+01 -0.59453651824672E+00
C     33     6 -0.40269892873055E+01 -0.28081882063946E+01  0.15918151848300E+01
N     34     7 -0.29980391866693E+01 -0.67562245432603E+01  0.56744355108054E+00
N     35     7 -0.20451086348243E+01 -0.26998669729002E+01 -0.53145055955297E-01
[GTO]
           1 0
 s           5   1.000000    
   1.82046632240000       0.240124727611182     
   1.13274582070000      -0.436698259643058     
  0.315046004900000       8.910099413886773E-003
  0.148617277200000       0.166265807795138     
  5.129314220000000E-002  1.365200086584920E-002
 p           3   1.000000    
   1.22375302100000      -0.199382925786612     
  0.183640111800000       0.158893436918354     
  4.740596480000000E-002  5.202233154330888E-003
 
           2 0
 s           8   1.000000    
   337.005012218500       3.432305239205129E-002
   53.3105310515000       6.055374312112197E-002
   12.2082534814000       0.107500714969022     
   3.41882690980000       0.165441504404321     
   1.10879012580000       0.202686413554854     
  0.478717798300000       0.123190550592188     
  0.212137087700000       8.634944270261000E-002
  6.905810860000000E-002  7.929813912332806E-003
 
           3 0
 s           6   1.000000    
   2.20862762910000       -1.31776917443070     
   1.91795894900000        1.00996066564688     
  0.497153036800000       0.264322393349396     
  0.192182467300000       0.132691502352217     
  0.150531183200000      -6.374539782674364E-002
  7.818867730000000E-002  2.205826057092831E-002
 p           6   1.000000    
   24.5973356357000       0.512845583758636     
   6.48816086650000       0.736589018580614     
   2.22635867440000       0.654494026038791     
  0.776897003100000       0.441086582019187     
  0.283424721400000       0.120078748946470     
  9.862825729999999E-002  1.408653366727153E-002
 
           4 0
 s           8   1.000000    
   337.005012218500       3.438962142246562E-002
   53.3105310515000       6.061401371945273E-002
   12.2082534814000       0.107681698737058     
   3.41882690980000       0.165655283984033     
   1.10879012580000       0.203042905971916     
  0.478717798300000       0.123261440790088     
  0.212137087700000       8.639905782509982E-002
  6.905810860000000E-002  7.802332081875622E-003
 
           5 0
 s           8   1.000000    
   337.005012218500       3.451480225288118E-002
   53.3105310515000       6.072723878698923E-002
   12.2082534814000       0.108021978860064     
   3.41882690980000       0.166057079953367     
   1.10879012580000       0.203713206431148     
  0.478717798300000       0.123394418919869     
  0.212137087700000       8.649212698632483E-002
  6.905810860000000E-002  7.562327477491073E-003
 
           6 0
 s           6   1.000000    
   3.48359494310000       -1.32032100749083     
   2.85986576440000        1.12176630343979     
  0.740681029000000       0.296948540510607     
  0.344926919200000       8.188850884128082E-002
  0.261978532900000       3.971055874079345E-002
  9.461635039999999E-002  1.113791314266463E-002
 p           6   1.000000    
   37.6414713255000        1.50058715871252     
   9.71308856170000        1.82208050317793     
   3.13717714760000        1.33237506179103     
   1.12138051620000       0.643828804724467     
  0.398077926500000       0.184650809001803     
  0.123047771000000       1.681050157412991E-002
 
           7 0
 s           8   1.000000    
   337.005012218500       3.689436051842392E-002
   53.3105310515000       6.285095889658654E-002
   12.2082534814000       0.114476603468284     
   3.41882690980000       0.173641288082748     
   1.10879012580000       0.216436627776198     
  0.478717798300000       0.125838221218446     
  0.212137087700000       8.820237689981081E-002
  6.905810860000000E-002  2.928694008848855E-003
 
           8 0
 s           8   1.000000    
   337.005012218500       3.436663060811577E-002
   53.3105310515000       6.059320283999443E-002
   12.2082534814000       0.107619194972537     
   3.41882690980000       0.165581460078279     
   1.10879012580000       0.202919787874053     
  0.478717798300000       0.123236971272628     
  0.212137087700000       8.638193195035350E-002
  6.905810860000000E-002  7.846371868470257E-003
 
           9 0
 s           6   1.000000    
   2.20862762910000       -1.31748376897191     
   1.91795894900000        1.00974090757479     
  0.497153036800000       0.264264852951170     
  0.192182467300000       0.132662642285478     
  0.150531183200000      -6.369073333567729E-002
  7.818867730000000E-002  2.205345646968727E-002
 p           6   1.000000    
   24.5973356357000       0.512765920624384     
   6.48816086650000       0.736516380399558     
   2.22635867440000       0.654426597540870     
  0.776897003100000       0.441044869985509     
  0.283424721400000       0.120067431048278     
  9.862825729999999E-002  1.409724876723608E-002
 
          10 0
 s           8   1.000000    
   337.005012218500       3.426640487140595E-002
   53.3105310515000       6.050242289374728E-002
   12.2082534814000       0.107346689590501     
   3.41882690980000       0.165259526013555     
   1.10879012580000       0.202383032337629     
  0.478717798300000       0.123130130664628     
  0.212137087700000       8.630715544247780E-002
  6.905810860000000E-002  8.038214735784520E-003
 
          11 0
 s           8   1.000000    
   337.005012218500       3.436385024005751E-002
   53.3105310515000       6.059068576662355E-002
   12.2082534814000       0.107611635990291     
   3.41882690980000       0.165572531643712     
   1.10879012580000       0.202904898513091     
  0.478717798300000       0.123234011099781     
  0.212137087700000       8.637986016510173E-002
  6.905810860000000E-002  7.851696937353657E-003
 
          12 0
 s           6   1.000000    
   3.48359494310000       -1.32114310671390     
   2.85986576440000        1.12254351242553     
  0.740681029000000       0.297219379976789     
  0.344926919200000       8.194466336919674E-002
  0.261978532900000       3.973902419865593E-002
  9.461635039999999E-002  1.099896702617327E-002
 p           6   1.000000    
   37.6414713255000        1.50348491465835     
   9.71308856170000        1.82520059483400     
   3.13717714760000        1.33560581610270     
   1.12138051620000       0.645004305676696     
  0.398077926500000       0.184822820419388     
  0.123047771000000       1.654675523338282E-002
 
          13 0
 s           8   1.000000    
   337.005012218500       3.692558123672696E-002
   53.3105310515000       6.287845134404134E-002
   12.2082534814000       0.114561111814283     
   3.41882690980000       0.173740099794462     
   1.10879012580000       0.216603325983506     
  0.478717798300000       0.125869192741415     
  0.212137087700000       8.822405004927128E-002
  6.905810860000000E-002  2.866970470246788E-003
 
          14 0
 s           8   1.000000    
   337.005012218500       3.423129488349769E-002
   53.3105310515000       6.047059981299414E-002
   12.2082534814000       0.107251217869006     
   3.41882690980000       0.165146708297742     
   1.10879012580000       0.202194987872714     
  0.478717798300000       0.123092638651438     
  0.212137087700000       8.628091511827174E-002
  6.905810860000000E-002  8.105363967260656E-003
 
          15 0
 s           8   1.000000    
   337.005012218500       3.462187595453813E-002
   53.3105310515000       6.082396992254904E-002
   12.2082534814000       0.108312982313546     
   3.41882690980000       0.166400539412735     
   1.10879012580000       0.204286475016179     
  0.478717798300000       0.123507820600048     
  0.212137087700000       8.657149440546610E-002
  6.905810860000000E-002  7.356748702432224E-003
 
          16 0
 s           8   1.000000    
   337.005012218500       3.513894534276769E-002
   53.3105310515000       6.128957386636217E-002
   12.2082534814000       0.109717534948123     
   3.41882690980000       0.168056291266855     
   1.10879012580000       0.207053871574824     
  0.478717798300000       0.124050980443421     
  0.212137087700000       8.695163366382394E-002
  6.905810860000000E-002  6.360190069557797E-003
 
          17 0
 s           8   1.000000    
   337.005012218500       3.486652030231036E-002
   53.3105310515000       6.104457925757500E-002
   12.2082534814000       0.108977678948245     
   3.41882690980000       0.167184526221794     
   1.10879012580000       0.205596032893541     
  0.478717798300000       0.123765735587433     
  0.212137087700000       8.675200181679192E-002
  6.905810860000000E-002  6.886028062865987E-003
 
          18 0
 s           8   1.000000    
   337.005012218500       3.410616680034667E-002
   53.3105310515000       6.035709316309387E-002
   12.2082534814000       0.106910922669348     
   3.41882690980000       0.164744464824832     
   1.10879012580000       0.201524758969784     
  0.478717798300000       0.122958748730373     
  0.212137087700000       8.618720635399355E-002
  6.905810860000000E-002  8.344444612207741E-003
 
          19 0
 s           6   1.000000    
   2.20862762910000       -1.29111873888329     
   1.91795894900000       0.989440389292282     
  0.497153036800000       0.258949467188262     
  0.192182467300000       0.129996643410735     
  0.150531183200000      -5.864791729637928E-002
  7.818867730000000E-002  2.160967035813392E-002
 p           6   1.000000    
   24.5973356357000       0.505302489506269     
   6.48816086650000       0.729694038904370     
   2.22635867440000       0.648095417483716     
  0.776897003100000       0.437126033536124     
  0.283424721400000       0.119004091811526     
  9.862825729999999E-002  1.509584980540249E-002
 
          20 0
 s           6   1.000000    
   2.20862762910000       -1.35908955185055     
   1.91795894900000        1.04177718610391     
  0.497153036800000       0.272653089268386     
  0.192182467300000       0.136869850650707     
  0.150531183200000      -7.167677105542816E-002
  7.818867730000000E-002  2.275379903727209E-002
 p           6   1.000000    
   24.5973356357000       0.524130843873606     
   6.48816086650000       0.746839375104881     
   2.22635867440000       0.664013540003581     
  0.776897003100000       0.446970112406807     
  0.283424721400000       0.121675092888250     
  9.862825729999999E-002  1.255633741369898E-002
 
          21 0
 s           6   1.000000    
   2.20862762910000       -1.42900539983371     
   1.91795894900000        1.09561406857549     
  0.497153036800000       0.286749549201926     
  0.192182467300000       0.143940029479216     
  0.150531183200000      -8.517592157024348E-002
  7.818867730000000E-002  2.393073143073980E-002
 p           6   1.000000    
   24.5973356357000       0.542154456934251     
   6.48816086650000       0.763040501624218     
   2.22635867440000       0.679078069495577     
  0.776897003100000       0.456257819896086     
  0.283424721400000       0.124194820893547     
  9.862825729999999E-002  1.006007758636698E-002
 
          22 0
 s           6   1.000000    
   2.20862762910000       -1.35118669667259     
   1.91795894900000        1.03569195410655     
  0.497153036800000       0.271059757544804     
  0.192182467300000       0.136070699989868     
  0.150531183200000      -7.015718212434381E-002
  7.818867730000000E-002  2.262076997044412E-002
 p           6   1.000000    
   24.5973356357000       0.522010038078682     
   6.48816086650000       0.744919143492925     
   2.22635867440000       0.662229554459660     
  0.776897003100000       0.445868343476730     
  0.283424721400000       0.121376165380967     
  9.862825729999999E-002  1.284578282987974E-002
 
          23 0
 s           6   1.000000    
   2.69507309610000       -1.13783447008364     
   2.24947021280000       0.939307202264500     
  0.611851695800000       0.236424790834699     
  0.303726665600000       9.032866089529452E-002
  0.171628270400000       3.142802748184892E-002
  7.154913430000000E-002  9.295483921749892E-003
 p           6   1.000000    
   27.5476401720000       0.944686186371545     
   7.12656627820000        1.20584429385515     
   2.35805520400000       0.913445533756715     
  0.845047262300000       0.479045079739864     
  0.301063057900000       0.124444046238357     
  9.457452580000000E-002  1.164029289387242E-002
 
          24 0
 s           6   1.000000    
   2.69507309610000       -1.14053074082197     
   2.24947021280000       0.941565695451874     
  0.611851695800000       0.236995178528402     
  0.303726665600000       9.054602170281792E-002
  0.171628270400000       3.150544452014697E-002
  7.154913430000000E-002  8.971903968934455E-003
 p           6   1.000000    
   27.5476401720000       0.949619096788965     
   7.12656627820000        1.20979959103870     
   2.35805520400000       0.917968290264379     
  0.845047262300000       0.480789400139338     
  0.301063057900000       0.124792355955853     
  9.457452580000000E-002  1.120449394608487E-002
 
          25 0
 s           8   1.000000    
   337.005012218500       3.411106330485099E-002
   53.3105310515000       6.036153761679162E-002
   12.2082534814000       0.106924240388446     
   3.41882690980000       0.164760210483781     
   1.10879012580000       0.201550988067202     
  0.478717798300000       0.122963996092280     
  0.212137087700000       8.619087896350296E-002
  6.905810860000000E-002  8.335095715734429E-003
 
          26 0
 s           8   1.000000    
   337.005012218500       3.413592692574544E-002
   53.3105310515000       6.038410238699637E-002
   12.2082534814000       0.106991863868842     
   3.41882690980000       0.164840157880753     
   1.10879012580000       0.201684172797386     
  0.478717798300000       0.122990631275827     
  0.212137087700000       8.620952081661536E-002
  6.905810860000000E-002  8.287615073297965E-003
 
          27 0
 s           8   1.000000    
   337.005012218500       3.515135553253150E-002
   53.3105310515000       6.130071766147200E-002
   12.2082534814000       0.109751230635629     
   3.41882690980000       0.168095972601791     
   1.10879012580000       0.207120271935871     
  0.478717798300000       0.124063925213339     
  0.212137087700000       8.696069313242896E-002
  6.905810860000000E-002  6.336193760040837E-003
 
          28 0
 s           8   1.000000    
   337.005012218500       3.485614534450312E-002
   53.3105310515000       6.103523504187129E-002
   12.2082534814000       0.108949495788631     
   3.41882690980000       0.167151300113077     
   1.10879012580000       0.205540504070821     
  0.478717798300000       0.123754831518494     
  0.212137087700000       8.674437041811005E-002
  6.905810860000000E-002  6.906019167813128E-003
 
          29 0
 s           8   1.000000    
   337.005012218500       3.461415842926552E-002
   53.3105310515000       6.081700144690334E-002
   12.2082534814000       0.108292009456118     
   3.41882690980000       0.166375790694844     
   1.10879012580000       0.204245157974928     
  0.478717798300000       0.123499657528917     
  0.212137087700000       8.656578126187450E-002
  6.905810860000000E-002  7.371575127150261E-003
 
          30 0
 s           6   1.000000    
   2.20862762910000       -1.29057818830070     
   1.91795894900000       0.989024180293186     
  0.497153036800000       0.258840489205864     
  0.192182467300000       0.129941984037762     
  0.150531183200000      -5.854466999787210E-002
  7.818867730000000E-002  2.160057170080797E-002
 p           6   1.000000    
   24.5973356357000       0.505147285576018     
   6.48816086650000       0.729551811426139     
   2.22635867440000       0.647963467949795     
  0.776897003100000       0.437044312484618     
  0.283424721400000       0.118981917053834     
  9.862825729999999E-002  1.511650627689946E-002
 
          31 0
 s           6   1.000000    
   2.20862762910000       -1.35906267280268     
   1.91795894900000        1.04175648906981     
  0.497153036800000       0.272647670042075     
  0.192182467300000       0.136867132587605     
  0.150531183200000      -7.167160052036615E-002
  7.818867730000000E-002  2.275334657982490E-002
 p           6   1.000000    
   24.5973356357000       0.524123660239466     
   6.48816086650000       0.746832875680235     
   2.22635867440000       0.664007501203942     
  0.776897003100000       0.446966383566710     
  0.283424721400000       0.121674081201547     
  9.862825729999999E-002  1.255731931760027E-002
 
          32 0
 s           6   1.000000    
   2.20862762910000       -1.42917239420030     
   1.91795894900000        1.09574266125930     
  0.497153036800000       0.286783219535283     
  0.192182467300000       0.143956916997018     
  0.150531183200000      -8.520828511292722E-002
  7.818867730000000E-002  2.393354261871144E-002
 p           6   1.000000    
   24.5973356357000       0.542195968898122     
   6.48816086650000       0.763077566171403     
   2.22635867440000       0.679112561342481     
  0.776897003100000       0.456279051028508     
  0.283424721400000       0.124200580463310     
  9.862825729999999E-002  1.005425103559319E-002
 
          33 0
 s           6   1.000000    
   2.20862762910000       -1.35134429947341     
   1.91795894900000        1.03581330862469     
  0.497153036800000       0.271091532496959     
  0.192182467300000       0.136086637026611     
  0.150531183200000      -7.018747424123575E-002
  7.818867730000000E-002  2.262342289645103E-002
 p           6   1.000000    
   24.5973356357000       0.522052503581363     
   6.48816086650000       0.744957620792495     
   2.22635867440000       0.662265298619093     
  0.776897003100000       0.445890422444320     
  0.283424721400000       0.121382155799074     
  9.862825729999999E-002  1.283999581365423E-002
 
          34 0
 s           6   1.000000    
   2.69507309610000       -1.13793509576185     
   2.24947021280000       0.939391488361668     
  0.611851695800000       0.236446077392189     
  0.303726665600000       9.033677270879847E-002
  0.171628270400000       3.143091656748327E-002
  7.154913430000000E-002  9.283424577251870E-003
 p           6   1.000000    
   27.5476401720000       0.944870490182680     
   7.12656627820000        1.20599231464800     
   2.35805520400000       0.913614538964188     
  0.845047262300000       0.479110329651859     
  0.301063057900000       0.124457091062523     
  9.457452580000000E-002  1.162406200188000E-002
 
          35 0
 s           6   1.000000    
   2.69507309610000       -1.14068969359039     
   2.24947021280000       0.941698842758588     
  0.611851695800000       0.237028805349674     
  0.303726665600000       9.055883601578152E-002
  0.171628270400000       3.151000872176598E-002
  7.154913430000000E-002  8.952798811271170E-003
 p           6   1.000000    
   27.5476401720000       0.949909542401185     
   7.12656627820000        1.21003205248616     
   2.35805520400000       0.918234541717860     
  0.845047262300000       0.480891967427720     
  0.301063057900000       0.124812809650935     
  9.457452580000000E-002  1.117874472908372E-002
 
[MO]
Sym=     1a
Ene=   -1.43364276197555     
Spin= Alpha
Occup=     2.00000000
           1 -2.588163518526862E-002
           2 -2.531272543563796E-003
           3 -4.614063583321805E-005
           4  1.854342435074747E-003
           5 -2.622730991043841E-002
           6 -0.107036703955472     
           7 -2.111869770358280E-003
           8 -2.812812072238096E-002
           9  2.719645911193643E-002
          10 -2.580966953839433E-002
          11 -2.808867542816800E-002
          12 -0.504937282422674     
          13  3.562856827102069E-003
          14  5.550982459179160E-003
          15 -1.486243937141365E-002
          16 -6.890836331057036E-002
          17 -3.253264882399007E-002
          18 -0.134707960802775     
          19  4.666075771319281E-002
          20  1.930507018383277E-002
          21 -7.696886916974793E-003
          22 -3.840045921542812E-002
          23 -3.478635373140542E-002
          24 -0.613621082973100     
          25 -1.971840357551333E-002
          26  6.202263572987572E-004
          27  1.306577141760024E-004
          28 -8.467354768192571E-002
          29 -7.637244944612103E-003
          30 -3.831079150701176E-003
          31 -5.183010330450812E-003
          32 -1.063422233656631E-002
          33 -7.661974862264564E-003
          34 -1.105366442329709E-002
          35  1.695176061338616E-003
          36 -5.292996230741452E-003
          37  3.270558780860237E-003
          38 -2.055411611700025E-002
          39 -1.449072916367081E-004
          40  4.737119420570377E-003
          41 -3.336631747577946E-003
          42 -3.177013705928118E-002
          43 -8.741713654912770E-005
          44 -1.524864493666348E-003
          45  4.114170714857299E-003
          46 -2.201587153776770E-002
          47  3.567135081304392E-004
          48 -9.306386051112225E-004
          49 -7.977930550056307E-003
          50 -3.199483094267202E-002
          51  2.577640328882283E-004
          52  2.375068789261787E-003
          53  2.148517731430551E-003
          54 -4.478251187275594E-002
          55  2.159210148150003E-004
          56 -7.539788977772375E-003
          57 -1.116625454597710E-003
          58 -1.479180861928888E-002
          59 -9.584931405314020E-003
          60 -5.155774852853045E-003
          61 -6.608909186450321E-003
          62 -5.482311630308276E-003
          63 -1.204646357794101E-002
          64  7.212224116545040E-003
          65  1.690870620616132E-003
          66 -3.960153885238959E-003
          67 -2.072803276386851E-002
          68 -4.483534616417578E-003
          69 -1.034470939030916E-003
          70  3.847068708668934E-003
          71 -3.392450124414941E-002
          72  2.563447286516413E-003
          73 -2.266884028127759E-003
          74 -2.404659305541391E-003
          75 -2.208615332335988E-002
          76 -2.251023863474157E-003
          77  5.641862583711314E-003
          78  2.998756736359728E-003
          79 -3.399238616868335E-002
          80  4.845486581782028E-005
          81 -3.403230491676843E-003
          82  2.801027594393285E-004
          83 -4.527551363429004E-002
          84  2.878246215665963E-003
          85  6.959609430926559E-003
          86 -1.544582742647052E-003
Sym=     2a
Ene=   -1.40936702084249     
Spin= Alpha
Occup=     2.00000000
           1  3.614894265848992E-003
           2  6.269689285734273E-003
           3 -1.731296232105253E-003
           4  6.137445457712263E-003
           5  3.273503861398606E-002
           6  0.141896156035024     
           7  1.622851826060516E-003
           8  3.724796802912696E-002
           9 -3.854095483969647E-002
          10  3.254630219803930E-002
          11  3.217651145295274E-002
          12  0.625714781290468     
          13 -3.890763190572538E-003
          14 -5.127855232085256E-003
          15  1.588300969327876E-002
          16  8.406228339384712E-002
          17 -2.689966317171133E-002
          18 -0.122635550594097     
          19  4.022085540796682E-002
          20  1.739651899564668E-002
          21 -8.102949383604428E-003
          22 -2.007170337740756E-002
          23 -2.509378958418368E-002
          24 -0.533425113032087     
          25 -1.480797828173768E-002
          26  2.138507694657205E-003
          27 -1.545596434462245E-003
          28 -7.052978404217358E-002
          29  8.297731419950142E-003
          30  3.498855024240000E-003
          31  2.778701132301602E-003
          32 -4.956622761800217E-004
          33  7.956054219823148E-003
          34  8.221932977765790E-003
          35 -1.811801564891955E-003
          36  3.966410081623268E-003
          37 -3.357847702377688E-003
          38  1.176975286582608E-002
          39  6.750725389215482E-005
          40 -2.850192644755436E-003
          41  2.035224461897690E-003
          42  2.126367222121140E-002
          43  1.191073008433771E-004
          44 -6.415742611180415E-004
          45 -2.522198205578304E-003
          46  1.295878066521139E-002
          47  4.356054458706073E-004
          48 -2.519189248955041E-004
          49  1.948898378312328E-003
          50  2.025035470625881E-002
          51 -1.583301349613869E-004
          52 -1.404666492064290E-003
          53 -1.217381579141699E-003
          54  2.518664666281891E-002
          55 -2.252630769064717E-004
          56  1.505135574518975E-003
          57  1.245233581298952E-003
          58 -9.542381601926709E-005
          59 -4.136272651561196E-003
          60  1.572576515622694E-003
          61  2.736021564766691E-003
          62 -5.925508064426846E-005
          63  9.500000995847688E-004
          64 -1.206006233005500E-003
          65 -7.551239835991415E-006
          66 -2.352083279335455E-003
          67  5.895038274842898E-003
          68  1.017084385100461E-003
          69  3.012845598428653E-004
          70 -1.033310719341129E-003
          71  8.086019980124520E-003
          72 -1.279633502377225E-003
          73  8.323227878759668E-004
          74  1.228667745793009E-003
          75  6.875449027796887E-003
          76  7.848095816562284E-004
          77 -1.263367299019035E-003
          78 -1.723020840637757E-003
          79  8.591984194279093E-003
          80 -3.916119641591712E-004
          81  6.389318045704915E-004
          82 -1.196456756612898E-004
          83  1.296453224321519E-002
          84 -1.208068313048492E-003
          85 -4.059239438914156E-004
          86  2.677681626191036E-004
Sym=     3a
Ene=   -1.33188199195931     
Spin= Alpha
Occup=     2.00000000
           1 -1.957465486959526E-002
           2  1.505991183864661E-002
           3  2.620747689686874E-002
           4 -5.697357837291650E-003
           5 -6.276076859818644E-004
           6  1.694563461319902E-002
           7 -6.523662729283868E-005
           8  2.087612409917596E-003
           9 -4.176376024234990E-003
          10  2.109227996554205E-003
          11 -4.937325473413100E-003
          12  7.467088137597268E-002
          13 -1.121745723103719E-003
          14 -9.943387047601871E-004
          15  1.252989786691206E-003
          16  1.235178931550964E-002
          17  3.601587139513722E-003
          18  1.690921352899310E-002
          19 -6.235499041124293E-003
          20 -3.754399785107243E-003
          21  1.494244571771169E-003
          22  4.344999822290519E-003
          23  4.470140952966064E-003
          24  6.126850744109326E-002
          25  1.770234202915755E-003
          26 -1.282323632580020E-003
          27 -5.751319906006522E-004
          28  2.781605528883871E-003
          29  4.439664435178388E-003
          30  5.797178930363142E-003
          31  1.005702531827957E-002
          32  1.038020871390548E-002
          33  5.792518399258593E-003
          34  2.329338575868681E-002
          35 -8.796940721331626E-004
          36  2.113668290303967E-003
          37 -7.488062822289677E-003
          38  4.091585545858739E-002
          39  3.787363857875486E-004
          40 -8.316343944727042E-003