[Molden Format]
[Title]
[Atoms] AU
Zn     1    30  0.18599157519166E+00  0.88596118096250E-01 -0.45918313891783E+00
H      2     1  0.22489916250616E+00  0.12309061696691E+01 -0.80008344504186E+01
C      3     6  0.90162120796449E+00  0.18259258363416E+01 -0.61361710454099E+01
H      4     1  0.28416441831639E+01  0.25447714048049E+01 -0.62664198423834E+01
H      5     1 -0.34076425341162E+00  0.32942782687920E+01 -0.53783251796750E+01
O      6     8  0.77173038178535E+00 -0.30139551626368E+00 -0.43834877948210E+01
H      7     1  0.17810826007938E+01 -0.16853704360217E+01 -0.50390566443848E+01
N      8     7 -0.74551724990960E+01 -0.17150845063926E+00  0.11502595618968E+01
N      9     7 -0.35816809499115E+01 -0.47742698826655E-01 -0.28104004929872E+00
C     10     6 -0.49924993517747E+01 -0.13871382454769E-01  0.18303744025011E+01
C     11     6 -0.40599736216543E+01  0.92464254917868E-01  0.44760862013869E+01
C     12     6 -0.76465172522789E+01 -0.31872534294534E+00 -0.14455678739028E+01
C     13     6 -0.52184682881640E+01 -0.24064645705438E+00 -0.23260233759867E+01
H     14     1 -0.89349371946726E+01 -0.18020243741446E+00  0.23747565368967E+01
H     15     1 -0.22946953662363E+01  0.11750793931307E+01  0.45907687017676E+01
H     16     1 -0.36923986350888E+01 -0.18129958397862E+01  0.52223702510809E+01
H     17     1 -0.54429811528832E+01  0.10009190144200E+01  0.57245062003574E+01
H     18     1 -0.94470244599120E+01 -0.44744329179124E+00 -0.24106290541952E+01
H     19     1 -0.45433047375245E+01 -0.30473143065735E+00 -0.42570269158008E+01
N     20     7  0.30465947745054E+01 -0.66377496955946E+01  0.22997362292131E+01
N     21     7  0.19581022294144E+01 -0.28299376519065E+01  0.11215437770748E+01
C     22     6  0.15396827099871E+01 -0.53038870965690E+01  0.71848623706628E+00
C     23     6 -0.22445881855586E+00 -0.64433727825738E+01 -0.11445228073241E+01
C     24     6  0.44629999433894E+01 -0.50065303593839E+01  0.37591124821062E+01
C     25     6  0.37710603880643E+01 -0.26323736215165E+01  0.30142100488784E+01
H     26     1  0.31214506382333E+01 -0.85551472838666E+01  0.23902906703532E+01
H     27     1 -0.15712740341569E+01 -0.50257344540974E+01 -0.18292303056947E+01
H     28     1 -0.13107113391496E+01 -0.79948959486991E+01 -0.29677942589504E+00
H     29     1  0.79645202285671E+00 -0.72255656134079E+01 -0.27782963349780E+01
H     30     1  0.57932267285067E+01 -0.56646949365681E+01  0.51688225596759E+01
H     31     1  0.44197841020701E+01 -0.82254498138755E+00  0.37170083098953E+01
N     32     7  0.38378103666425E+01  0.69185040183236E+01  0.74379654668092E+00
N     33     7  0.15016428470528E+01  0.35466464693980E+01  0.24993706811927E+00
C     34     6  0.38796427773587E+01  0.44326619610854E+01  0.13316358593020E+00
C     35     6  0.61928232353637E+01  0.30060719816950E+01 -0.56871468088551E+00
C     36     6  0.13933108464521E+01  0.76618893606290E+01  0.12611065988182E+01
C     37     6 -0.55058602923317E-01  0.55471540366543E+01  0.94633478941202E+00
H     38     1  0.53798571994327E+01  0.80624482482411E+01  0.80471297892119E+00
H     39     1  0.57278381463265E+01  0.10282849301725E+01 -0.96663740074103E+00
H     40     1  0.76011357471800E+01  0.30413194910195E+01  0.95786482026189E+00
H     41     1  0.70926016203368E+01  0.38134412917492E+01 -0.22584216223155E+01
H     42     1  0.91591054111656E+00  0.95810373642914E+01  0.17892575554285E+01
H     43     1 -0.20804532756587E+01  0.53270958986014E+01  0.11484723157468E+01
[GTO]
           1 0
 s           5   1.000000    
   1.82046632240000       0.240413796296500     
   1.13274582070000      -0.437217730166387     
  0.315046004900000       8.925046539848928E-003
  0.148617277200000       0.166463862059449     
  5.129314220000000E-002  1.356398760361215E-002
 p           3   1.000000    
   1.22375302100000      -0.199935109904675     
  0.183640111800000       0.159300836703127     
  4.740596480000000E-002  5.100012309332124E-003
 
           2 0
 s           8   1.000000    
   337.005012218500       3.558293193328130E-002
   53.3105310515000       6.168733506849290E-002
   12.2082534814000       0.110922588707968     
   3.41882690980000       0.169474208355508     
   1.10879012580000       0.209428820492191     
  0.478717798300000       0.124511391442249     
  0.212137087700000       8.727385070330530E-002
  6.905810860000000E-002  5.499402686658641E-003
 
           3 0
 s           6   1.000000    
   2.20862762910000       -1.32574618334013     
   1.91795894900000        1.01610286337150     
  0.497153036800000       0.265930637323952     
  0.192182467300000       0.133498135715817     
  0.150531183200000      -6.527391134429901E-002
  7.818867730000000E-002  2.219253438832457E-002
 p           6   1.000000    
   24.5973356357000       0.515062499486054     
   6.48816086650000       0.738608879139113     
   2.22635867440000       0.656369189954987     
  0.776897003100000       0.442246369628638     
  0.283424721400000       0.120393436600985     
  9.862825729999999E-002  1.378786524152671E-002
 
           4 0
 s           8   1.000000    
   337.005012218500       3.535206463186435E-002
   53.3105310515000       6.148074086237334E-002
   12.2082534814000       0.110296090095363     
   3.41882690980000       0.168737352731319     
   1.10879012580000       0.208194029136617     
  0.478717798300000       0.124272678728231     
  0.212137087700000       8.710678950985491E-002
  6.905810860000000E-002  5.947591961027258E-003
 
           5 0
 s           8   1.000000    
   337.005012218500       3.539860028553110E-002
   53.3105310515000       6.152242516851009E-002
   12.2082534814000       0.110422392591901     
   3.41882690980000       0.168885957321215     
   1.10879012580000       0.208442951078238     
  0.478717798300000       0.124320917310808     
  0.212137087700000       8.714054908583513E-002
  6.905810860000000E-002  5.857354299715456E-003
 
           6 0
 s           6   1.000000    
   3.48359494310000       -1.32262124562777     
   2.85986576440000        1.12394120408940     
  0.740681029000000       0.297706640770346     
  0.344926919200000       8.204564694879228E-002
  0.261978532900000       3.979021786438781E-002
  9.461635039999999E-002  1.074864899135311E-002
 p           6   1.000000    
   37.6414713255000        1.50868602459651     
   9.71308856170000        1.83079757698578     
   3.13717714760000        1.34140988683851     
   1.12138051620000       0.647113639972026     
  0.398077926500000       0.185130080753815     
  0.123047771000000       1.607099036486516E-002
 
           7 0
 s           8   1.000000    
   337.005012218500       3.768994168678731E-002
   53.3105310515000       6.354841532038256E-002
   12.2082534814000       0.116628584275407     
   3.41882690980000       0.176153412403854     
   1.10879012580000       0.220682513044955     
  0.478717798300000       0.126618284678361     
  0.212137087700000       8.874823235149476E-002
  6.905810860000000E-002  1.348031342993405E-003
 
           8 0
 s           6   1.000000    
   2.69507309610000       -1.15459689501805     
   2.24947021280000       0.953349465800938     
  0.611851695800000       0.239971281423482     
  0.303726665600000       9.168011718646667E-002
  0.171628270400000       3.190945195594880E-002
  7.154913430000000E-002  7.268431929766331E-003
 p           6   1.000000    
   27.5476401720000       0.975150518520697     
   7.12656627820000        1.23004744920154     
   2.35805520400000       0.941353263633517     
  0.845047262300000       0.489745195195845     
  0.301063057900000       0.126566306502501     
  9.457452580000000E-002  8.901469822387188E-003
 
           9 0
 s           6   1.000000    
   2.69507309610000       -1.14340233154286     
   2.24947021280000       0.943971140460021     
  0.611851695800000       0.237602684900531     
  0.303726665600000       9.077752588343321E-002
  0.171628270400000       3.158790424459780E-002
  7.154913430000000E-002  8.626252094615924E-003
 p           6   1.000000    
   27.5476401720000       0.954859771911728     
   7.12656627820000        1.21398670179146     
   2.35805520400000       0.922771643802916     
  0.845047262300000       0.482637711818751     
  0.301063057900000       0.125160470544019     
  9.457452580000000E-002  1.073833299442052E-002
 
          10 0
 s           6   1.000000    
   2.20862762910000       -1.42339315091408     
   1.91795894900000        1.09129240935515     
  0.497153036800000       0.285617978770042     
  0.192182467300000       0.143372484670672     
  0.150531183200000      -8.408860450727369E-002
  7.818867730000000E-002  2.383625489156772E-002
 p           6   1.000000    
   24.5973356357000       0.540755202799425     
   6.48816086650000       0.761790471404545     
   2.22635867440000       0.677914881819116     
  0.776897003100000       0.455541736531888     
  0.283424721400000       0.124000561161067     
  9.862825729999999E-002  1.025626264389183E-002
 
          11 0
 s           6   1.000000    
   2.20862762910000       -1.30351711664155     
   1.91795894900000       0.998986836610972     
  0.497153036800000       0.261449059919042     
  0.192182467300000       0.131250346785037     
  0.150531183200000      -6.101763447004001E-002
  7.818867730000000E-002  2.181836340387949E-002
 p           6   1.000000    
   24.5973356357000       0.508838101055448     
   6.48816086650000       0.732930139361276     
   2.22635867440000       0.651098086424222     
  0.776897003100000       0.438985170501418     
  0.283424721400000       0.119508557221979     
  9.862825729999999E-002  1.462408152225565E-002
 
          12 0
 s           6   1.000000    
   2.20862762910000       -1.35660449050319     
   1.91795894900000        1.03986367494293     
  0.497153036800000       0.272152063413150     
  0.192182467300000       0.136618556458419     
  0.150531183200000      -7.119879883259679E-002
  7.818867730000000E-002  2.271196781483117E-002
 p           6   1.000000    
   24.5973356357000       0.523465839417086     
   6.48816086650000       0.746237570253663     
   2.22635867440000       0.663454401318231     
  0.776897003100000       0.446624836397101     
  0.283424721400000       0.121581414449149     
  9.862825729999999E-002  1.264719139785521E-002
 
          13 0
 s           6   1.000000    
   2.20862762910000       -1.35482731848700     
   1.91795894900000        1.03849524443925     
  0.497153036800000       0.271793759273785     
  0.192182467300000       0.136438845626709     
  0.150531183200000      -7.085705723461461E-002
  7.818867730000000E-002  2.268205259605590E-002
 p           6   1.000000    
   24.5973356357000       0.522989207716279     
   6.48816086650000       0.745806063064351     
   2.22635867440000       0.663053505647460     
  0.776897003100000       0.446377254254109     
  0.283424721400000       0.121514241529924     
  9.862825729999999E-002  1.271225621478519E-002
 
          14 0
 s           8   1.000000    
   337.005012218500       3.776284599204861E-002
   53.3105310515000       6.361199959612834E-002
   12.2082534814000       0.116825626406928     
   3.41882690980000       0.176382999988441     
   1.10879012580000       0.221071381079467     
  0.478717798300000       0.126688802328134     
  0.212137087700000       8.879757605152484E-002
  6.905810860000000E-002  1.202364741559382E-003
 
          15 0
 s           8   1.000000    
   337.005012218500       3.512088982373368E-002
   53.3105310515000       6.127335819407737E-002
   12.2082534814000       0.109668510008965     
   3.41882690980000       0.167998554188585     
   1.10879012580000       0.206957264362416     
  0.478717798300000       0.124032139454077     
  0.212137087700000       8.693844768172784E-002
  6.905810860000000E-002  6.395095615514347E-003
 
          16 0
 s           8   1.000000    
   337.005012218500       3.521479943923844E-002
   53.3105310515000       6.135766446891013E-002
   12.2082534814000       0.109923480121561     
   3.41882690980000       0.168298790183309     
   1.10879012580000       0.207459712003693     
  0.478717798300000       0.124130034477272     
  0.212137087700000       8.700695996185888E-002
  6.905810860000000E-002  6.213461365875613E-003
 
          17 0
 s           8   1.000000    
   337.005012218500       3.533210081598490E-002
   53.3105310515000       6.146285189515535E-002
   12.2082534814000       0.110241903197928     
   3.41882690980000       0.168673589343410     
   1.10879012580000       0.208087237427318     
  0.478717798300000       0.124251965599006     
  0.212137087700000       8.709229348163386E-002
  6.905810860000000E-002  5.986288011256415E-003
 
          18 0
 s           8   1.000000    
   337.005012218500       3.586624690742093E-002
   53.3105310515000       6.194015660941097E-002
   12.2082534814000       0.111691073446379     
   3.41882690980000       0.170377137874374     
   1.10879012580000       0.210943675501660     
  0.478717798300000       0.124802258949222     
  0.212137087700000       8.747740880703714E-002
  6.905810860000000E-002  4.947630968498914E-003
 
          19 0
 s           8   1.000000    
   337.005012218500       3.571493012471492E-002
   53.3105310515000       6.180522339532850E-002
   12.2082534814000       0.111280677261476     
   3.41882690980000       0.169895070874024     
   1.10879012580000       0.210134663029600     
  0.478717798300000       0.124647194126906     
  0.212137087700000       8.736889007910809E-002
  6.905810860000000E-002  5.242571760846732E-003
 
          20 0
 s           6   1.000000    
   2.69507309610000       -1.15461723819909     
   2.24947021280000       0.953366509881917     
  0.611851695800000       0.239975586171981     
  0.303726665600000       9.168175755494774E-002
  0.171628270400000       3.191003641394062E-002
  7.154913430000000E-002  7.265949252895136E-003
 p           6   1.000000    
   27.5476401720000       0.975187175470096     
   7.12656627820000        1.23007624035337     
   2.35805520400000       0.941386809273148     
  0.845047262300000       0.489757963046073     
  0.301063057900000       0.126568817425085     
  9.457452580000000E-002  8.898103875800209E-003
 
          21 0
 s           6   1.000000    
   2.69507309610000       -1.14326308693817     
   2.24947021280000       0.943854497117930     
  0.611851695800000       0.237573225944365     
  0.303726665600000       9.076629991467079E-002
  0.171628270400000       3.158390552868955E-002
  7.154913430000000E-002  8.643037580956373E-003
 p           6   1.000000    
   27.5476401720000       0.954605967442954     
   7.12656627820000        1.21378428045286     
   2.35805520400000       0.922539056607171     
  0.845047262300000       0.482548314775755     
  0.301063057900000       0.125142689123355     
  9.457452580000000E-002  1.076098524703049E-002
 
          22 0
 s           6   1.000000    
   2.20862762910000       -1.42323802231158     
   1.91795894900000        1.09117295427359     
  0.497153036800000       0.285586701011764     
  0.192182467300000       0.143356797148804     
  0.150531183200000      -8.405855920614759E-002
  7.818867730000000E-002  2.383364346438768E-002
 p           6   1.000000    
   24.5973356357000       0.540716411297361     
   6.48816086650000       0.761755797882477     
   2.22635867440000       0.677882619253094     
  0.776897003100000       0.455521872404126     
  0.283424721400000       0.123995172374191     
  9.862825729999999E-002  1.026169562620169E-002
 
          23 0
 s           6   1.000000    
   2.20862762910000       -1.30342429899874     
   1.91795894900000       0.998915369017961     
  0.497153036800000       0.261430347204370     
  0.192182467300000       0.131240961185648     
  0.150531183200000      -6.099988286524581E-002
  7.818867730000000E-002  2.181680106338246E-002
 p           6   1.000000    
   24.5973356357000       0.508811804133627     
   6.48816086650000       0.732906097831918     
   2.22635867440000       0.651075776092820     
  0.776897003100000       0.438971360521361     
  0.283424721400000       0.119504810009327     
  9.862825729999999E-002  1.462759896491210E-002
 
          24 0
 s           6   1.000000    
   2.20862762910000       -1.35661718744452     
   1.91795894900000        1.03987345165099     
  0.497153036800000       0.272154623305785     
  0.192182467300000       0.136619840396652     
  0.150531183200000      -7.120124062244265E-002
  7.818867730000000E-002  2.271218154318169E-002
 p           6   1.000000    
   24.5973356357000       0.523469241514484     
   6.48816086650000       0.746240649743434     
   2.22635867440000       0.663457262402954     
  0.776897003100000       0.446626603254140     
  0.283424721400000       0.121581893824410     
  9.862825729999999E-002  1.264672681872995E-002
 
          25 0
 s           6   1.000000    
   2.20862762910000       -1.35382592802061     
   1.91795894900000        1.03772416994312     
  0.497153036800000       0.271591864359594     
  0.192182467300000       0.136337583304497     
  0.150531183200000      -7.066452274995758E-002
  7.818867730000000E-002  2.266519616232510E-002
 p           6   1.000000    
   24.5973356357000       0.522720248208334     
   6.48816086650000       0.745562503377265     
   2.22635867440000       0.662827231277728     
  0.776897003100000       0.446237504811044     
  0.283424721400000       0.121476325219183     
  9.862825729999999E-002  1.274895214028795E-002
 
          26 0
 s           8   1.000000    
   337.005012218500       3.776354679068731E-002
   53.3105310515000       6.361261053485150E-002
   12.2082534814000       0.116827520360542     
   3.41882690980000       0.176385206411578     
   1.10879012580000       0.221075118932327     
  0.478717798300000       0.126689479390220     
  0.212137087700000       8.879804981456230E-002
  6.905810860000000E-002  1.200963833774354E-003
 
          27 0
 s           8   1.000000    
   337.005012218500       3.510610741919359E-002
   53.3105310515000       6.126007979334849E-002
   12.2082534814000       0.109628371224168     
   3.41882690980000       0.167951279384483     
   1.10879012580000       0.206878168676731     
  0.478717798300000       0.124016707167156     
  0.212137087700000       8.692764729054020E-002
  6.905810860000000E-002  6.423667681326536E-003
 
          28 0
 s           8   1.000000    
   337.005012218500       3.531079503959903E-002
   53.3105310515000       6.144375621562211E-002
   12.2082534814000       0.110184071844908     
   3.41882690980000       0.168605531894453     
   1.10879012580000       0.207973264513689     
  0.478717798300000       0.124229847730650     
  0.212137087700000       8.707681433136991E-002
  6.905810860000000E-002  6.027574645198575E-003
 
          29 0
 s           8   1.000000    
   337.005012218500       3.521792228759200E-002
   53.3105310515000       6.136046652217025E-002
   12.2082534814000       0.109931958141225     
   3.41882690980000       0.168308771448719     
   1.10879012580000       0.207476419352603     
  0.478717798300000       0.124133285600045     
  0.212137087700000       8.700923526849270E-002
  6.905810860000000E-002  6.207417725219913E-003
 
          30 0
 s           8   1.000000    
   337.005012218500       3.586303564416011E-002
   53.3105310515000       6.193729536263513E-002
   12.2082534814000       0.111682365085940     
   3.41882690980000       0.170366911739706     
   1.10879012580000       0.210926508027396     
  0.478717798300000       0.124798974970356     
  0.212137087700000       8.747511059682080E-002
  6.905810860000000E-002  4.953896041197114E-003
 
          31 0
 s           8   1.000000    
   337.005012218500       3.563655061327826E-002
   53.3105310515000       6.173524261316665E-002
   12.2082534814000       0.111068056847778     
   3.41882690980000       0.169645204157780     
   1.10879012580000       0.209715552221307     
  0.478717798300000       0.124566615494825     
  0.212137087700000       8.731249848220846E-002
  6.905810860000000E-002  5.395126965922465E-003
 
          32 0
 s           6   1.000000    
   2.69507309610000       -1.15460053157277     
   2.24947021280000       0.953352512606895     
  0.611851695800000       0.239972050941827     
  0.303726665600000       9.168041041931572E-002
  0.171628270400000       3.190955643384497E-002
  7.154913430000000E-002  7.267988129606254E-003
 p           6   1.000000    
   27.5476401720000       0.975157071391382     
   7.12656627820000        1.23005259602712     
   2.35805520400000       0.941359260326570     
  0.845047262300000       0.489747477622340     
  0.301063057900000       0.126566755367952     
  9.457452580000000E-002  8.900868131844236E-003
 
          33 0
 s           6   1.000000    
   2.69507309610000       -1.14332519424944     
   2.24947021280000       0.943906523552047     
  0.611851695800000       0.237586365521947     
  0.303726665600000       9.077130703377315E-002
  0.171628270400000       3.158568907444655E-002
  7.154913430000000E-002  8.635551057360434E-003
 p           6   1.000000    
   27.5476401720000       0.954719175985891     
   7.12656627820000        1.21387457428696     
   2.35805520400000       0.922642801743716     
  0.845047262300000       0.482588191465642     
  0.301063057900000       0.125150621045577     
  9.457452580000000E-002  1.075088225786665E-002
 
          34 0
 s           6   1.000000    
   2.20862762910000       -1.42329461332819     
   1.91795894900000        1.09121653156477     
  0.497153036800000       0.285598111158219     
  0.192182467300000       0.143362519966967     
  0.150531183200000      -8.406951969384098E-002
  7.818867730000000E-002  2.383459611470932E-002
 p           6   1.000000    
   24.5973356357000       0.540730563179024     
   6.48816086650000       0.761768447564546     
   2.22635867440000       0.677894389350952     
  0.776897003100000       0.455529119293606     
  0.283424721400000       0.123997138327438     
  9.862825729999999E-002  1.025971360689285E-002
 
          35 0
 s           6   1.000000    
   2.20862762910000       -1.30381131622284     
   1.91795894900000       0.999213364002800     
  0.497153036800000       0.261508372711339     
  0.192182467300000       0.131280095867616     
  0.150531183200000      -6.107390199480020E-002
  7.818867730000000E-002  2.182331547952234E-002
 p           6   1.000000    
   24.5973356357000       0.508921436113555     
   6.48816086650000       0.733006324316330     
   2.22635867440000       0.651168785702821     
  0.776897003100000       0.439028932620217     
  0.283424721400000       0.119520431671369     
  9.862825729999999E-002  1.461293388064572E-002
 
          36 0
 s           6   1.000000    
   2.20862762910000       -1.35654121418654     
   1.91795894900000        1.03981495186516     
  0.497153036800000       0.272139305964848     
  0.192182467300000       0.136612157840182     
  0.150531183200000      -7.118663000804221E-002
  7.818867730000000E-002  2.271090268095087E-002
 p           6   1.000000    
   24.5973356357000       0.523448884095089     
   6.48816086650000       0.746222222629108     
   2.22635867440000       0.663440142197270     
  0.776897003100000       0.446616030691167     
  0.283424721400000       0.121579025326673     
  9.862825729999999E-002  1.264950672648345E-002
 
          37 0
 s           6   1.000000    
   2.20862762910000       -1.35364160041780     
   1.91795894900000        1.03758223703760     
  0.497153036800000       0.271554701243921     
  0.192182467300000       0.136318943787570     
  0.150531183200000      -7.062908481200077E-002
  7.818867730000000E-002  2.266209337206974E-002
 p           6   1.000000    
   24.5973356357000       0.522670709723034     
   6.48816086650000       0.745517638176821     
   2.22635867440000       0.662785550687208     
  0.776897003100000       0.446211761760724     
  0.283424721400000       0.121469340700944     
  9.862825729999999E-002  1.275570946009909E-002
 
          38 0
 s           8   1.000000    
   337.005012218500       3.776100978153699E-002
   53.3105310515000       6.361039880929664E-002
   12.2082534814000       0.116820663917584     
   3.41882690980000       0.176377218742281     
   1.10879012580000       0.221061587259527     
  0.478717798300000       0.126687028239558     
  0.212137087700000       8.879633466216125E-002
  6.905810860000000E-002  1.206035294927685E-003
 
          39 0
 s           8   1.000000    
   337.005012218500       3.511950621253083E-002
   53.3105310515000       6.127211544378023E-002
   12.2082534814000       0.109664753120597     
   3.41882690980000       0.167994129502372     
   1.10879012580000       0.206949861179810     
  0.478717798300000       0.124030695274583     
  0.212137087700000       8.693743696326303E-002
  6.905810860000000E-002  6.397770139444087E-003
 
          40 0
 s           8   1.000000    
   337.005012218500       3.523274263598144E-002
   53.3105310515000       6.137376317569112E-002
   12.2082534814000       0.109972192337383     
   3.41882690980000       0.168356137946254     
   1.10879012580000       0.207555707924794     
  0.478717798300000       0.124148710971287     
  0.212137087700000       8.702003074848748E-002
  6.905810860000000E-002  6.178732762808739E-003
 
          41 0
 s           8   1.000000    
   337.005012218500       3.523832029313535E-002
   53.3105310515000       6.137876684387043E-002
   12.2082534814000       0.109987334266791     
   3.41882690980000       0.168373963368612     
   1.10879012580000       0.207585547932106     
  0.478717798300000       0.124154514729361     
  0.212137087700000       8.702409251888582E-002
  6.905810860000000E-002  6.167935779886330E-003
 
          42 0
 s           8   1.000000    
   337.005012218500       3.586208893695827E-002
   53.3105310515000       6.193645182395892E-002
   12.2082534814000       0.111679797779361     
   3.41882690980000       0.170363896953820     
   1.10879012580000       0.210921446900419     
  0.478717798300000       0.124798006769397     
  0.212137087700000       8.747443302558222E-002
  6.905810860000000E-002  4.955742988787253E-003
 
          43 0
 s           8   1.000000    
   337.005012218500       3.561778469152178E-002
   53.3105310515000       6.171847869440521E-002
   12.2082534814000       0.111017146196779     
   3.41882690980000       0.169585363532463     
   1.10879012580000       0.209615201442505     
  0.478717798300000       0.124547297031821     
  0.212137087700000       8.729897874119627E-002
  6.905810860000000E-002  5.431630194051636E-003
 
[MO]
Sym=     1a
Ene=   -1.60899907877142     
Spin= Alpha
Occup=     2.00000000
           1 -4.216882648714313E-002
           2  9.432166291135344E-004
           3 -1.016618258863191E-003
           4  3.129888248133887E-003
           5 -3.084686380654346E-002
           6 -0.130645976216613     
           7  2.386519426377139E-003
           8  3.763047387186626E-002
           9 -3.095498898354328E-002
          10 -3.181308199796388E-002
          11 -3.337353656998707E-002
          12 -0.619284431519515     
          13 -5.637798096192464E-003
          14 -1.026920094522102E-002
          15  1.394065637634326E-002
          16 -8.359429626081455E-002
          17 -0.113348573497816     
          18 -1.513092891151636E-002
          19 -2.300863046777744E-004
          20  9.874432776399393E-003
          21 -0.119653442719706     
          22  1.744663461175709E-002
          23  8.130550475044085E-004
          24 -1.260840327258625E-003
          25 -9.784206699543076E-002
          26  5.540271736127335E-003
          27  1.047900539202313E-003
          28  1.498579480115089E-002
          29 -3.370221649669985E-002
          30  6.164241222266780E-003
          31  6.189819814271604E-004
          32  1.090370793075679E-002
          33 -7.127924941056707E-002
          34 -1.372548307575989E-002
          35 -1.357718149828029E-003
          36 -1.250837259780353E-002
          37 -7.153805667326021E-002
          38  2.413696120822644E-003
          39 -8.332300639085426E-004
          40 -2.151906418369261E-002
          41 -2.643735010190160E-002
          42 -1.034020807380193E-002
          43 -8.835004934151491E-003
          44 -8.997697615396960E-003
          45 -1.711176394589391E-002
          46 -2.494528120580934E-002
          47 -0.116013695604650     
          48  2.227910726824496E-003
          49 -1.798236635214210E-002
          50  2.558839866151961E-003
          51 -0.119968933102348     
          52 -7.182934003596914E-003
          53  1.462241779306053E-002
          54 -6.827131048478664E-003
          55 -0.100364201125735     
          56 -1.017435269673370E-002
          57 -6.461830958874239E-003
          58 -9.935843436340033E-003
          59 -3.375958018505955E-002
          60 -9.558198439000434E-003
          61 -2.549748187469602E-003
          62 -9.954336005058548E-003
          63 -7.192258558934611E-002
          64  1.308895595032858E-002
          65 -1.214734698820873E-003
          66  1.367201171655512E-002
          67 -7.196431861355902E-002
          68  8.728133962623761E-003
          69  1.621665493490543E-002
          70  9.050689564138232E-003
          71 -2.703607765475593E-002
          72 -1.628774378390904E-002
          73 -9.595288413581191E-003
          74 -1.086958640617432E-002
          75 -1.716809461439283E-002
          76 -1.917496918133334E-002
          77 -0.129546922877010     
          78  1.483825497640610E-002
          79  1.395980106502219E-002
          80  1.274176994540522E-003