30
 energy: -2391.292701093000 gnorm: 0.000819685368 xtb: 6.7.1 (edcfbbe)
ZN           0.14014883970241       -0.90121639072119       -0.08838580253101
H           -3.13380030766965       -1.74971453795821       -2.05685956897942
C           -2.34805774299816       -1.08477461394237       -1.70909040336964
H           -1.98833049545196       -0.45786192081497       -2.52299337365145
H           -2.71522672445184       -0.45519249384462       -0.90108489389371
O           -1.26604546162031       -1.87546233887912       -1.15730075699621
H           -0.89477953392647       -2.44370535175417       -1.83758616556046
H           -2.05794106868341       -1.69605151136668        2.13801528967619
C           -1.19224727582000       -2.35762252773762        2.17614074448507
H           -1.05821168831543       -2.74329872676135        3.18280517086984
H           -1.32483095141230       -3.18097906272017        1.47762589839832
O            0.00452160284286       -1.65738714266552        1.77361334160037
H            0.14475841619853       -0.89299305264713        2.35062748285484
H            3.61676263743340       -1.40766817319233       -1.79588287880700
C            2.88446274845466       -0.86200835498947       -1.20767215447092
H            3.35320656048953       -0.41733684109644       -0.33076047570814
H            2.41935374774554       -0.08193697293800       -1.80587740456012
O            1.82139236966898       -1.76735703100695       -0.81380598087062
H            2.17570136512805       -2.45826110699922       -0.24775866283626
H            1.16532329628194        0.82784258160864        2.49949279914959
H           -0.60349227669066        1.00413836896983        2.64717671004979
H            0.15611053772273        3.91851142490129       -1.50184372725753
H           -0.00838060754943        1.31347867651048       -2.25870898498878
H            0.45054193795993        2.40152552600518        2.87233783467397
C            0.31482246674668        1.48926552689974        2.29885743474325
C            0.16100254519024        3.03869343469680       -0.88693465561857
C            0.23166397966057        1.86764948789445        0.87236876269435
C            0.07686244298141        1.74496658136784       -1.27568751394731
N            0.25823775466985        3.11039288155438        0.46778537987937
N            0.11902863571275        0.97266066162822       -0.14112740502709
