40
 energy: -2690.078216532800 gnorm: 0.000451537658 xtb: 6.7.1 (edcfbbe)
ZN           0.03725560008258       -0.03754844434220        0.00867474829373
H            0.68833005966645        1.10047836754592       -3.75556579694603
C            0.25330555830724        1.08368358384763       -2.75671557176829
H            0.50610041464232        1.99584264036757       -2.21902393958113
H           -0.82805617683076        0.99161356492877       -2.81727647807272
O            0.71459525371458       -0.07162748594289       -2.03741370929094
H            1.63219631332271        0.07216645142668       -1.78077715601562
H           -1.45016963245843        1.24657872935192        2.22561643179557
H           -1.80876196271812       -0.40456282310160        2.72186522805739
H           -4.90855678626227       -0.38425077216624       -1.28296408834248
H           -2.32376464663110       -0.63836780762858       -2.11859000736114
H           -3.05760135232615        0.84539683073817        2.88552321424096
C           -2.23517089177487        0.49154257222555        2.26732922707265
C           -4.00279451559471       -0.24021923106577       -0.72580687816450
C           -2.73882710859381        0.18812029810913        0.90945835150404
C           -2.71896021120131       -0.36179615156205       -1.15770693071824
N           -4.01866187454540        0.11175097564285        0.59059218109797
N           -1.90586989312460       -0.07969017958117       -0.10459370935806
H            0.21078843310215       -2.83292080619243       -1.64102157034928
H           -1.08560059315727       -2.88451802224904       -0.45364837704844
H            3.02558871942700       -3.26170075937598        2.61687937420969
H            2.23617963099666       -0.67457397840856        2.24139447172283
H           -0.09418401526250       -4.33779984308395       -0.74270546181039
C           -0.08340048057475       -3.25174564419819       -0.67686813065843
C            2.31087666723490       -2.86808021326543        1.92013628731248
C            0.86097587670423       -2.84096481576726        0.38502476478860
C            1.92957719888111       -1.57596854642774        1.74235015231839
N            1.63351034945831       -3.67636951764135        1.05477145250073
N            0.99889781674754       -1.55852716730397        0.74947237691971
H            2.89419270803730        0.17298248649720        0.03625781409441
H            4.08085608197651        1.48419560532837        0.18874002184183
H            0.80571947857426        4.98484402662361        0.22454560534589
H           -0.90521540737287        2.90036899217837        0.67413201851667
H            3.39375449325682        1.12323002498144       -1.38691042994591
C            3.17048806231422        1.16618471213445       -0.31557302710398
C            1.00105910390472        3.93060522734977        0.19345278190508
C            2.07938869736761        2.12965808158552       -0.03116532000131
C            0.14119238689910        2.90420104558865        0.43122337240836
N            2.23702470202410        3.44007530981084       -0.10297595423590
N            0.83627595172955        1.74405418305162        0.29315373084219
