[Molden Format]
[Title]
[Atoms] AU
Zn     1    30 -0.11745591893600E-02 -0.26914422418888E-02 -0.44111873794917E-03
H      2     1 -0.26764408221890E+01  0.44379169300169E+01 -0.35624583358833E+01
H      3     1 -0.72674407508288E+00  0.27698829725124E+01 -0.56875144550465E+01
H      4     1 -0.77408288844277E+01 -0.40085008493868E+01 -0.46210115363680E+01
H      5     1 -0.41993455243809E+01 -0.43361114382749E+01 -0.75656272289018E+00
H      6     1 -0.37897099615832E+01  0.37959489297351E+01 -0.66884880447531E+01
C      7     6 -0.27045222070988E+01  0.30307524456371E+01 -0.50954153598923E+01
C      8     6 -0.62425013537553E+01 -0.26918483251069E+01 -0.41115593428441E+01
C      9     6 -0.38753509261756E+01  0.59378628031303E+00 -0.42694432659347E+01
C     10     6 -0.45015458182521E+01 -0.28739333642448E+01 -0.21672266207564E+01
N     11     7 -0.58477893539465E+01 -0.49157466755838E+00 -0.54461900776903E+01
N     12     7 -0.29871006067373E+01 -0.76101803537155E+00 -0.22652418134904E+01
H     13     1  0.27376096462326E+01 -0.43906566215438E+01 -0.36187634587617E+01
H     14     1  0.78176777476715E+00 -0.26832843892744E+01 -0.57067729549713E+01
H     15     1  0.77856299034969E+01  0.40838586621324E+01 -0.44661968495392E+01
H     16     1  0.42012851958292E+01  0.43429700097846E+01 -0.63664320597496E+00
H     17     1  0.38506005612691E+01 -0.36725448525798E+01 -0.67279445029815E+01
C     18     6  0.27602270963108E+01 -0.29486196250651E+01 -0.51192383606661E+01
C     19     6  0.62828738188630E+01  0.27577107560792E+01 -0.39958789537570E+01
C     20     6  0.39193397788085E+01 -0.52552565477802E+00 -0.42378737869973E+01
C     21     6  0.45202958873991E+01  0.29049628917750E+01 -0.20682709302942E+01
N     22     7  0.59041328004680E+01  0.58123723362008E+00 -0.53733847556346E+01
N     23     7  0.30081196509838E+01  0.79347831224363E+00 -0.22201844341934E+01
H     24     1  0.26927711538971E+01  0.71252203507332E+00  0.57271668967574E+01
H     25     1  0.43910612118784E+01  0.26686926054775E+01  0.36319080714978E+01
H     26     1 -0.40710419735474E+01  0.77284824919500E+01  0.45767225196587E+01
H     27     1 -0.43442871865944E+01  0.41924182424341E+01  0.70329947304134E+00
H     28     1  0.37016400187917E+01  0.37737092736769E+01  0.67506045096891E+01
C     29     6  0.29610397168565E+01  0.26918866676472E+01  0.51436972353385E+01
C     30     6 -0.27473471019052E+01  0.62308668021609E+01  0.40837455998264E+01
C     31     6  0.53582689130261E+00  0.38634681968668E+01  0.42848045650522E+01
C     32     6 -0.29019563188269E+01  0.44925695064139E+01  0.21347228990838E+01
N     33     7 -0.56621555605767E+00  0.58342620716974E+01  0.54488890599389E+01
N     34     7 -0.79051537306869E+00  0.29779339239028E+01  0.22604621106455E+01
H     35     1 -0.37618330261283E+01 -0.38681612935696E+01  0.66675317583067E+01
H     36     1 -0.27566501851616E+01 -0.79652746071825E+00  0.56709255521312E+01
H     37     1  0.43360020609345E+01 -0.42070826295035E+01  0.68510109049996E+00
H     38     1  0.40289603457676E+01 -0.77943817725791E+01  0.45083554458587E+01
H     39     1 -0.44340083908536E+01 -0.27447528482710E+01  0.35517348400861E+01
C     40     6 -0.30141183782706E+01 -0.27729514150894E+01  0.50730528716446E+01
C     41     6  0.28798620015946E+01 -0.45278187164917E+01  0.20978941993314E+01
C     42     6 -0.57902364638939E+00 -0.39302121094246E+01  0.42229118625707E+01
C     43     6  0.27082914356620E+01 -0.62918464835300E+01  0.40221968085779E+01
N     44     7  0.76582315503101E+00 -0.30168787199221E+01  0.22232675221468E+01
N     45     7  0.51372378684443E+00 -0.59152403830727E+01  0.53713614638111E+01
[GTO]
           1 0
 s           5   1.000000    
   1.82046632240000       0.237513573540000     
   1.13274582070000      -0.432005795077976     
  0.315046004900000       8.775145371079792E-003
  0.148617277200000       0.164476754484760     
  5.129314220000000E-002  1.444546042202086E-002
 p           3   1.000000    
   1.22375302100000      -0.194411622878231     
  0.183640111800000       0.155222068003347     
  4.740596480000000E-002  6.109821206026254E-003
 
           2 0
 s           8   1.000000    
   337.005012218500       3.331122059770744E-002
   53.3105310515000       5.963262978288168E-002
   12.2082534814000       0.104747395385721     
   3.41882690980000       0.162182715138762     
   1.10879012580000       0.197264609943335     
  0.478717798300000       0.122098295450546     
  0.212137087700000       8.558496549336092E-002
  6.905810860000000E-002  9.854970238308529E-003
 
           3 0
 s           8   1.000000    
   337.005012218500       3.341383912424069E-002
   53.3105310515000       5.972647228163487E-002
   12.2082534814000       0.105026837380435     
   3.41882690980000       0.162514012022806     
   1.10879012580000       0.197814753340200     
  0.478717798300000       0.122210318071007     
  0.212137087700000       8.566337277569734E-002
  6.905810860000000E-002  9.660784403050850E-003
 
           4 0
 s           8   1.000000    
   337.005012218500       3.335412923452852E-002
   53.3105310515000       5.967188037432866E-002
   12.2082534814000       0.104864246068584     
   3.41882690980000       0.162321264348663     
   1.10879012580000       0.197494652825280     
  0.478717798300000       0.122145170205819     
  0.212137087700000       8.561777429319670E-002
  6.905810860000000E-002  9.773802726002756E-003
 
           5 0
 s           8   1.000000    
   337.005012218500       3.380048495071558E-002
   53.3105310515000       6.007919583607527E-002
   12.2082534814000       0.106079306317796     
   3.41882690980000       0.163760668231312     
   1.10879012580000       0.199887034058728     
  0.478717798300000       0.122629880811809     
  0.212137087700000       8.595703098205862E-002
  6.905810860000000E-002  8.926992600525544E-003
 
           6 0
 s           8   1.000000    
   337.005012218500       3.327375807727041E-002
   53.3105310515000       5.959834747425953E-002
   12.2082534814000       0.104645369289653     
   3.41882690980000       0.162061725721042     
   1.10879012580000       0.197063756247625     
  0.478717798300000       0.122057330405659     
  0.212137087700000       8.555629298768856E-002
  6.905810860000000E-002  9.925801844857732E-003
 
           7 0
 s           6   1.000000    
   2.20862762910000       -1.26647740154162     
   1.91795894900000       0.970467385915450     
  0.497153036800000       0.253981679171652     
  0.192182467300000       0.127504978887620     
  0.150531183200000      -5.394713713001262E-002
  7.818867730000000E-002  2.119490615182252E-002
 p           6   1.000000    
   24.5973356357000       0.498136323554803     
   6.48816086650000       0.723112185488012     
   2.22635867440000       0.641990803016261     
  0.776897003100000       0.433343238621262     
  0.283424721400000       0.117977620184397     
  9.862825729999999E-002  1.604502811858104E-002
 
           8 0
 s           6   1.000000    
   2.20862762910000       -1.32335427276867     
   1.91795894900000        1.01426111864478     
  0.497153036800000       0.265448403518542     
  0.192182467300000       0.133256265856791     
  0.150531183200000      -6.481545282348053E-002
  7.818867730000000E-002  2.215227222252185E-002
 p           6   1.000000    
   24.5973356357000       0.514399706881978     
   6.48816086650000       0.738005316526755     
   2.22635867440000       0.655808830283147     
  0.776897003100000       0.441899830160962     
  0.283424721400000       0.120299409772621     
  9.862825729999999E-002  1.387725599927366E-002
 
           9 0
 s           6   1.000000    
   2.20862762910000       -1.40014228167564     
   1.91795894900000        1.07338847083638     
  0.497153036800000       0.280930069071849     
  0.192182467300000       0.141021235785013     
  0.150531183200000      -7.959094220356688E-002
  7.818867730000000E-002  2.344485454798612E-002
 p           6   1.000000    
   24.5973356357000       0.534871434062602     
   6.48816086650000       0.756519731231588     
   2.22635867440000       0.673011916924526     
  0.776897003100000       0.452521385426489     
  0.283424721400000       0.123181175810854     
  9.862825729999999E-002  1.107674548283950E-002
 
          10 0
 s           6   1.000000    
   2.20862762910000       -1.32447115199717     
   1.91795894900000        1.01512110296384     
  0.497153036800000       0.265673577772080     
  0.192182467300000       0.133369204577815     
  0.150531183200000      -6.502951136311468E-002
  7.818867730000000E-002  2.217107223748721E-002
 p           6   1.000000    
   24.5973356357000       0.514709398773061     
   6.48816086650000       0.738287366672581     
   2.22635867440000       0.656070687646534     
  0.776897003100000       0.442061773386602     
  0.283424721400000       0.120343350006088     
  9.862825729999999E-002  1.383549828438342E-002
 
          11 0
 s           6   1.000000    
   2.69507309610000       -1.13175507209198     
   2.24947021280000       0.934215201803632     
  0.611851695800000       0.235138812957498     
  0.303726665600000       8.983860072563181E-002
  0.171628270400000       3.125350092678011E-002
  7.154913430000000E-002  1.002167079859500E-002
 p           6   1.000000    
   27.5476401720000       0.933523063677383     
   7.12656627820000        1.19684432955359     
   2.35805520400000       0.903205397192935     
  0.845047262300000       0.475081801182991     
  0.301063057900000       0.123649493243102     
  9.457452580000000E-002  1.261607251253357E-002
 
          12 0
 s           6   1.000000    
   2.69507309610000       -1.13602942230667     
   2.24947021280000       0.937795278617212     
  0.611851695800000       0.236042953862873     
  0.303726665600000       9.018315132768535E-002
  0.171628270400000       3.137620423602194E-002
  7.154913430000000E-002  9.511587602811098E-003
 p           6   1.000000    
   27.5476401720000       0.941377452887533     
   7.12656627820000        1.20318376135739     
   2.35805520400000       0.910411115212994     
  0.845047262300000       0.477872647549598     
  0.301063057900000       0.124209448968458     
  9.457452580000000E-002  1.193100655632467E-002
 
          13 0
 s           8   1.000000    
   337.005012218500       3.330477861105374E-002
   53.3105310515000       5.962673555793989E-002
   12.2082534814000       0.104729851596687     
   3.41882690980000       0.162161911701889     
   1.10879012580000       0.197230072083623     
  0.478717798300000       0.122091253816354     
  0.212137087700000       8.558003687339127E-002
  6.905810860000000E-002  9.867152556754723E-003
 
          14 0
 s           8   1.000000    
   337.005012218500       3.341667234579659E-002
   53.3105310515000       5.972906185705217E-002
   12.2082534814000       0.105034551919097     
   3.41882690980000       0.162523156362347     
   1.10879012580000       0.197829941529814     
  0.478717798300000       0.122213406975104     
  0.212137087700000       8.566553476696098E-002
  6.905810860000000E-002  9.655419711250467E-003
 
          15 0
 s           8   1.000000    
   337.005012218500       3.335411441902325E-002
   53.3105310515000       5.967186682473473E-002
   12.2082534814000       0.104864205723727     
   3.41882690980000       0.162321216515714     
   1.10879012580000       0.197494573397846     
  0.478717798300000       0.122145154029298     
  0.212137087700000       8.561776297086249E-002
  6.905810860000000E-002  9.773830758690209E-003
 
          16 0
 s           8   1.000000    
   337.005012218500       3.380309854439766E-002
   53.3105310515000       6.008157549970567E-002
   12.2082534814000       0.106086418421598     
   3.41882690980000       0.163769086534192     
   1.10879012580000       0.199901039005045     
  0.478717798300000       0.122632703313092     
  0.212137087700000       8.595900647268849E-002
  6.905810860000000E-002  8.922020856575744E-003
 
          17 0
 s           8   1.000000    
   337.005012218500       3.327442716787696E-002
   53.3105310515000       5.959895987606365E-002
   12.2082534814000       0.104647191556176     
   3.41882690980000       0.162063886831534     
   1.10879012580000       0.197067343619050     
  0.478717798300000       0.122058062377436     
  0.212137087700000       8.555680531434295E-002
  6.905810860000000E-002  9.924537049910732E-003
 
          18 0
 s           6   1.000000    
   2.20862762910000       -1.26646390126316     
   1.91795894900000       0.970456991234732     
  0.497153036800000       0.253978957487066     
  0.192182467300000       0.127503613786100     
  0.150531183200000      -5.394456495542888E-002
  7.818867730000000E-002  2.119467891658909E-002
 p           6   1.000000    
   24.5973356357000       0.498132345854113     
   6.48816086650000       0.723108523758925     
   2.22635867440000       0.641987407696051     
  0.776897003100000       0.433341133553481     
  0.283424721400000       0.117977048956325     
  9.862825729999999E-002  1.604555239379694E-002
 
          19 0
 s           6   1.000000    
   2.20862762910000       -1.32337968314736     
   1.91795894900000        1.01428068434085     
  0.497153036800000       0.265453526508296     
  0.192182467300000       0.133258835351039     
  0.150531183200000      -6.482032264296601E-002
  7.818867730000000E-002  2.215269994584785E-002
 p           6   1.000000    
   24.5973356357000       0.514406756796845     
   6.48816086650000       0.738011737853092     
   2.22635867440000       0.655814791816763     
  0.776897003100000       0.441903517103818     
  0.283424721400000       0.120300410155849     
  9.862825729999999E-002  1.387630561731614E-002
 
          20 0
 s           6   1.000000    
   2.20862762910000       -1.40013451740895     
   1.91795894900000        1.07338249214065     
  0.497153036800000       0.280928503630575     
  0.192182467300000       0.141020450627506     
  0.150531183200000      -7.958944214397094E-002
  7.818867730000000E-002  2.344472384713732E-002
 p           6   1.000000    
   24.5973356357000       0.534869445613799     
   6.48816086650000       0.756517946050130     
   2.22635867440000       0.673010256740182     
  0.776897003100000       0.452520362176217     
  0.283424721400000       0.123180898209336     
  9.862825729999999E-002  1.107702156193530E-002
 
          21 0
 s           6   1.000000    
   2.20862762910000       -1.32448678610478     
   1.91795894900000        1.01513314105350     
  0.497153036800000       0.265676729769030     
  0.192182467300000       0.133370785497808     
  0.150531183200000      -6.503250793698112E-002
  7.818867730000000E-002  2.217133540075325E-002
 p           6   1.000000    
   24.5973356357000       0.514713731269376     
   6.48816086650000       0.738291312050701     
   2.22635867440000       0.656074350609259     
  0.776897003100000       0.442064038655079     
  0.283424721400000       0.120343964643257     
  9.862825729999999E-002  1.383491397727618E-002
 
          22 0
 s           6   1.000000    
   2.69507309610000       -1.13175514401602     
   2.24947021280000       0.934215262043374     
  0.611851695800000       0.235138828170813     
  0.303726665600000       8.983860652316251E-002
  0.171628270400000       3.125350299133053E-002
  7.154913430000000E-002  1.002166223488168E-002
 p           6   1.000000    
   27.5476401720000       0.933523196062941     
   7.12656627820000        1.19684443668284     
   2.35805520400000       0.903205518674514     
  0.845047262300000       0.475081848312630     
  0.301063057900000       0.123649502716977     
  9.457452580000000E-002  1.261606102478025E-002
 
          23 0
 s           6   1.000000    
   2.69507309610000       -1.13603244502457     
   2.24947021280000       0.937797810439074     
  0.611851695800000       0.236043593273676     
  0.303726665600000       9.018339499345965E-002
  0.171628270400000       3.137629101583745E-002
  7.154913430000000E-002  9.511226064728135E-003
 p           6   1.000000    
   27.5476401720000       0.941382997812411     
   7.12656627820000        1.20318822500709     
   2.35805520400000       0.910416200957027     
  0.845047262300000       0.477874613984263     
  0.301063057900000       0.124209842762225     
  9.457452580000000E-002  1.193052042769582E-002
 
          24 0
 s           8   1.000000    
   337.005012218500       3.341375721331012E-002
   53.3105310515000       5.972639741365147E-002
   12.2082534814000       0.105026614345809     
   3.41882690980000       0.162513747649878     
   1.10879012580000       0.197814314235572     
  0.478717798300000       0.122210228764903     
  0.212137087700000       8.566331026840493E-002
  6.905810860000000E-002  9.660939498323884E-003
 
          25 0
 s           8   1.000000    
   337.005012218500       3.330983711881110E-002
   53.3105310515000       5.963136397257766E-002
   12.2082534814000       0.104743627702608     
   3.41882690980000       0.162178247458575     
   1.10879012580000       0.197257192624305     
  0.478717798300000       0.122096783284040     
  0.212137087700000       8.558390708946180E-002
  6.905810860000000E-002  9.857586587576241E-003
 
          26 0
 s           8   1.000000    
   337.005012218500       3.335464680392235E-002
   53.3105310515000       5.967235371874780E-002
   12.2082534814000       0.104865655487587     
   3.41882690980000       0.162322935357218     
   1.10879012580000       0.197497427566769     
  0.478717798300000       0.122145735317686     
  0.212137087700000       8.561816982852553E-002
  6.905810860000000E-002  9.772823420422311E-003
 
          27 0
 s           8   1.000000    
   337.005012218500       3.380206932216086E-002
   53.3105310515000       6.008063840558935E-002
   12.2082534814000       0.106083617708515     
   3.41882690980000       0.163765771455753     
   1.10879012580000       0.199895523920658     
  0.478717798300000       0.122631591845804     
  0.212137087700000       8.595822854810992E-002
  6.905810860000000E-002  8.923978727111110E-003
 
          28 0
 s           8   1.000000    
   337.005012218500       3.327423170888143E-002
   53.3105310515000       5.959878097777680E-002
   12.2082534814000       0.104646659224311     
   3.41882690980000       0.162063255514997     
   1.10879012580000       0.197066295653602     
  0.478717798300000       0.122057848550416     
  0.212137087700000       8.555665565108556E-002
  6.905810860000000E-002  9.924906530879020E-003
 
          29 0
 s           6   1.000000    
   2.20862762910000       -1.26646888896127     
   1.91795894900000       0.970460831565088     
  0.497153036800000       0.253979963017512     
  0.192182467300000       0.127504118124901     
  0.150531183200000      -5.394551524877014E-002
  7.818867730000000E-002  2.119476286898631E-002
 p           6   1.000000    
   24.5973356357000       0.498133815428237     
   6.48816086650000       0.723109876597411     
   2.22635867440000       0.641988662108740     
  0.776897003100000       0.433341911278131     
  0.283424721400000       0.117977259998535     
  9.862825729999999E-002  1.604535869898819E-002
 
          30 0
 s           6   1.000000    
   2.20862762910000       -1.32337132025249     
   1.91795894900000        1.01427424500902     
  0.497153036800000       0.265451840463964     
  0.192182467300000       0.133257989696174     
  0.150531183200000      -6.481871991894045E-002
  7.818867730000000E-002  2.215255917639005E-002
 p           6   1.000000    
   24.5973356357000       0.514404436596534     
   6.48816086650000       0.738009624531177     
   2.22635867440000       0.655812829816806     
  0.776897003100000       0.441902303694739     
  0.283424721400000       0.120300080919916     
  9.862825729999999E-002  1.387661839894537E-002
 
          31 0
 s           6   1.000000    
   2.20862762910000       -1.40012788535507     
   1.91795894900000        1.07337738527949     
  0.497153036800000       0.280927166467489     
  0.192182467300000       0.141019779964444     
  0.150531183200000      -7.958816082934958E-002
  7.818867730000000E-002  2.344461220554888E-002
 p           6   1.000000    
   24.5973356357000       0.534867747114998     
   6.48816086650000       0.756516421176725     
   2.22635867440000       0.673008838637540     
  0.776897003100000       0.452519488132085     
  0.283424721400000       0.123180661086524     
  9.862825729999999E-002  1.107725738331436E-002
 
          32 0
 s           6   1.000000    
   2.20862762910000       -1.32446824129028     
   1.91795894900000        1.01511886175180     
  0.497153036800000       0.265672990943627     
  0.192182467300000       0.133368910247316     
  0.150531183200000      -6.502895347135561E-002
  7.818867730000000E-002  2.217102324261363E-002
 p           6   1.000000    
   24.5973356357000       0.514708592155242     
   6.48816086650000       0.738286632126586     
   2.22635867440000       0.656070005680453     
  0.776897003100000       0.442061351641416     
  0.283424721400000       0.120343235573617     
  9.862825729999999E-002  1.383560706943089E-002
 
          33 0
 s           6   1.000000    
   2.69507309610000       -1.13175489445001     
   2.24947021280000       0.934215053020185     
  0.611851695800000       0.235138775382813     
  0.303726665600000       8.983858640656978E-002
  0.171628270400000       3.125349582763931E-002
  7.154913430000000E-002  1.002169194972511E-002
 p           6   1.000000    
   27.5476401720000       0.933522736704175     
   7.12656627820000        1.19684406495978     
   2.35805520400000       0.903205097150980     
  0.845047262300000       0.475081684779577     
  0.301063057900000       0.123649469843993     
  9.457452580000000E-002  1.261610088561649E-002
 
          34 0
 s           6   1.000000    
   2.69507309610000       -1.13603092283207     
   2.24947021280000       0.937796535453977     
  0.611851695800000       0.236043271276596     
  0.303726665600000       9.018327228726306E-002
  0.171628270400000       3.137624731490606E-002
  7.154913430000000E-002  9.511408129682191E-003
 p           6   1.000000    
   27.5476401720000       0.941380205478457     
   7.12656627820000        1.20318597718782     
   2.35805520400000       0.910413639859297     
  0.845047262300000       0.477873623720436     
  0.301063057900000       0.124209644454361     
  9.457452580000000E-002  1.193076523460823E-002
 
          35 0
 s           8   1.000000    
   337.005012218500       3.327432154226782E-002
   53.3105310515000       5.959886319986749E-002
   12.2082534814000       0.104646903885234     
   3.41882690980000       0.162063545669553     
   1.10879012580000       0.197066777300865     
  0.478717798300000       0.122057946825912     
  0.212137087700000       8.555672443673736E-002
  6.905810860000000E-002  9.924736716715822E-003
 
          36 0
 s           8   1.000000    
   337.005012218500       3.341631759119419E-002
   53.3105310515000       5.972873761394579E-002
   12.2082534814000       0.105033585964747     
   3.41882690980000       0.162522011384653     
   1.10879012580000       0.197828039781975     
  0.478717798300000       0.122213020217525     
  0.212137087700000       8.566526406692328E-002
  6.905810860000000E-002  9.656091447347888E-003
 
          37 0
 s           8   1.000000    
   337.005012218500       3.380196174859959E-002
   53.3105310515000       6.008054046063391E-002
   12.2082534814000       0.106083324979748     
   3.41882690980000       0.163765424965114     
   1.10879012580000       0.199894947487682     
  0.478717798300000       0.122631475674408     
  0.212137087700000       8.595814723884627E-002
  6.905810860000000E-002  8.924183360923149E-003
 
          38 0
 s           8   1.000000    
   337.005012218500       3.335407328518317E-002
   53.3105310515000       5.967182920556660E-002
   12.2082534814000       0.104864093710065     
   3.41882690980000       0.162321083712064     
   1.10879012580000       0.197494352875129     
  0.478717798300000       0.122145109116699     
  0.212137087700000       8.561773153545804E-002
  6.905810860000000E-002  9.773908588752558E-003
 
          39 0
 s           8   1.000000    
   337.005012218500       3.330583262110354E-002
   53.3105310515000       5.962769997111927E-002
   12.2082534814000       0.104732722048010     
   3.41882690980000       0.162165315518267     
   1.10879012580000       0.197235723035503     
  0.478717798300000       0.122092406013200     
  0.212137087700000       8.558084332555889E-002
  6.905810860000000E-002  9.865159402205082E-003
 
          40 0
 s           6   1.000000    
   2.20862762910000       -1.26646927657831     
   1.91795894900000       0.970461130014890     
  0.497153036800000       0.253980041161925     
  0.192182467300000       0.127504157319398     
  0.150531183200000      -5.394558910047289E-002
  7.818867730000000E-002  2.119476939331466E-002
 p           6   1.000000    
   24.5973356357000       0.498133929635300     
   6.48816086650000       0.723109981732382     
   2.22635867440000       0.641988759594619     
  0.776897003100000       0.433341971718497     
  0.283424721400000       0.117977276399543     
  9.862825729999999E-002  1.604534364609716E-002
 
          41 0
 s           6   1.000000    
   2.20862762910000       -1.32448325342390     
   1.91795894900000        1.01513042092835     
  0.497153036800000       0.265676017544214     
  0.192182467300000       0.133370428273335     
  0.150531183200000      -6.503183083112184E-002
  7.818867730000000E-002  2.217127593641625E-002
 p           6   1.000000    
   24.5973356357000       0.514712752305309     
   6.48816086650000       0.738290420560264     
   2.22635867440000       0.656073522932779     
  0.776897003100000       0.442063526799218     
  0.283424721400000       0.120343825760984     
  9.862825729999999E-002  1.383504600670504E-002
 
          42 0
 s           6   1.000000    
   2.20862762910000       -1.40014248644980     
   1.91795894900000        1.07338862851803     
  0.497153036800000       0.280930110358673     
  0.192182467300000       0.141021256492695     
  0.150531183200000      -7.959098176603732E-002
  7.818867730000000E-002  2.344485799508001E-002
 p           6   1.000000    
   24.5973356357000       0.534871486505577     
   6.48816086650000       0.756519778313593     
   2.22635867440000       0.673011960709887     
  0.776897003100000       0.452521412413478     
  0.283424721400000       0.123181183132258     
  9.862825729999999E-002  1.107673820157018E-002
 
          43 0
 s           6   1.000000    
   2.20862762910000       -1.32336716341555     
   1.91795894900000        1.01427104429292     
  0.497153036800000       0.265451002403525     
  0.192182467300000       0.133257569357352     
  0.150531183200000      -6.481792327397286E-002
  7.818867730000000E-002  2.215248920592058E-002
 p           6   1.000000    
   24.5973356357000       0.514403283316719     
   6.48816086650000       0.738008574081200     
   2.22635867440000       0.655811854583212     
  0.776897003100000       0.441901700556284     
  0.283424721400000       0.120299917269538     
  9.862825729999999E-002  1.387677386994298E-002
 
          44 0
 s           6   1.000000    
   2.69507309610000       -1.13602966318481     
   2.24947021280000       0.937795480376215     
  0.611851695800000       0.236043004817044     
  0.303726665600000       9.018317074522980E-002
  0.171628270400000       3.137621115144072E-002
  7.154913430000000E-002  9.511558792151984E-003
 p           6   1.000000    
   27.5476401720000       0.941377894758990     
   7.12656627820000        1.20318411706335     
   2.35805520400000       0.910411520492692     
  0.845047262300000       0.477872804253696     
  0.301063057900000       0.124209480349707     
  9.457452580000000E-002  1.193096781718071E-002
 
          45 0
 s           6   1.000000    
   2.69507309610000       -1.13175528897929     
   2.24947021280000       0.934215383456873     
  0.611851695800000       0.235138858833323     
  0.303726665600000       8.983861820811447E-002
  0.171628270400000       3.125350715244216E-002
  7.154913430000000E-002  1.002164497467303E-002
 p           6   1.000000    
   27.5476401720000       0.933523462886670     
   7.12656627820000        1.19684465260232     
   2.35805520400000       0.903205763521215     
  0.845047262300000       0.475081943302635     
  0.301063057900000       0.123649521811615     
  9.457452580000000E-002  1.261603787115232E-002
 
[MO]
Sym=     1a
Ene=   -1.10243131619758     
Spin= Alpha
Occup=     2.00000000
           1 -4.488009778082495E-002
           2  4.251304811209055E-006
           3 -2.207348122272839E-005
           4  6.733962312974733E-006
           5 -1.575304330384180E-002
           6 -1.678704507949787E-002
           7 -2.597398941705390E-002
           8 -2.816503115431214E-002
           9 -1.538358703858345E-002
          10 -5.331407217634112E-002
          11  1.012117664348540E-002
          12  1.621409450764866E-002
          13 -4.303597947730346E-003
          14 -0.105028594082920     
          15 -1.725535566881820E-002
          16 -2.143894250218693E-002
          17 -9.463472506220185E-004
          18 -0.138630971370616     
          19  8.691822438880458E-003
          20  1.919425863165306E-002
          21 -6.475411257339304E-003
          22 -0.104871576066329     
          23 -1.217839834028410E-003
          24 -2.326063923899657E-002
          25  1.695354697584572E-002
          26 -0.162201597242185     
          27 -8.896102446454500E-003