[Molden Format]
[Title]
[Atoms] AU
H      1     1  0.15030957591011E+02 -0.82274021842826E+01  0.10635211767300E+02
H      2     1  0.12625278333898E+02 -0.65112093346992E+01  0.12239343979034E+02
H      3     1  0.12708178269838E+02 -0.51492614390311E-01  0.52963014529844E+01
H      4     1  0.12689608934085E+02 -0.46185676293336E+01  0.27218288468425E+01
H      5     1  0.15751204599167E+02 -0.53093850275711E+01  0.12190037758717E+02
C      6     6  0.14331061760143E+02 -0.63149278424417E+01  0.11046488538223E+02
C      7     6  0.13018864907393E+02 -0.19583285618962E+01  0.60208335660010E+01
C      8     6  0.13801654816051E+02 -0.49397108010946E+01  0.86245989470016E+01
C      9     6  0.13009044757311E+02 -0.42526280683321E+01  0.47268762918183E+01
N     10     7  0.13530053400054E+02 -0.23941020587033E+01  0.85299278700721E+01
N     11     7  0.13514344580327E+02 -0.61765201157099E+01  0.63982808968802E+01
[GTO]
           1 0
 s           8   1.000000    
   337.005012218500       3.247846751070262E-002
   53.3105310515000       5.886761728594657E-002
   12.2082534814000       0.102478040126041     
   3.41882690980000       0.159487715583566     
   1.10879012580000       0.192797949316753     
  0.478717798300000       0.121179007947121     
  0.212137087700000       8.494151946319355E-002
  6.905810860000000E-002  1.142210661750064E-002
 
           2 0
 s           8   1.000000    
   337.005012218500       3.214676555855257E-002
   53.3105310515000       5.856119527041927E-002
   12.2082534814000       0.101573291985424     
   3.41882690980000       0.158411055231487     
   1.10879012580000       0.191017700127288     
  0.478717798300000       0.120807833878334     
  0.212137087700000       8.468171266970151E-002
  6.905810860000000E-002  1.204207378084960E-002
 
           3 0
 s           8   1.000000    
   337.005012218500       3.253221677609884E-002
   53.3105310515000       5.891717955727405E-002
   12.2082534814000       0.102624602677724     
   3.41882690980000       0.159662008811442     
   1.10879012580000       0.193086364373773     
  0.478717798300000       0.121238886990180     
  0.212137087700000       8.498343198441677E-002
  6.905810860000000E-002  1.132142019395021E-002
 
           4 0
 s           8   1.000000    
   337.005012218500       3.253872723077808E-002
   53.3105310515000       5.892318113398932E-002
   12.2082534814000       0.102642354442176     
   3.41882690980000       0.159683117095152     
   1.10879012580000       0.193121297946390     
  0.478717798300000       0.121246134860191     
  0.212137087700000       8.498850514616731E-002
  6.905810860000000E-002  1.130922010649014E-002
 
           5 0
 s           8   1.000000    
   337.005012218500       3.234924061174060E-002
   53.3105310515000       5.874835336349465E-002
   12.2082534814000       0.102125616626187     
   3.41882690980000       0.159068476254944     
   1.10879012580000       0.192104459832355     
  0.478717798300000       0.121034738948919     
  0.212137087700000       8.484053749531099E-002
  6.905810860000000E-002  1.166392344950941E-002
 
           6 0
 s           6   1.000000    
   2.20862762910000       -1.24322562783858     
   1.91795894900000       0.952564569939900     
  0.497153036800000       0.249294110143120     
  0.192182467300000       0.125153855425946     
  0.150531183200000      -4.952227288789844E-002
  7.818867730000000E-002  2.080353822021467E-002
 p           6   1.000000    
   24.5973356357000       0.491200096462643     
   6.48816086650000       0.716713063090049     
   2.22635867440000       0.636058744257207     
  0.776897003100000       0.429663563091327     
  0.283424721400000       0.116979088624120     
  9.862825729999999E-002  1.695496119216858E-002
 
           7 0
 s           6   1.000000    
   2.20862762910000       -1.30771228482978     
   1.91795894900000        1.00221703051239     
  0.497153036800000       0.262294837738068     
  0.192182467300000       0.131674557267075     
  0.150531183200000      -6.182014846785585E-002
  7.818867730000000E-002  2.188897812451816E-002
 p           6   1.000000    
   24.5973356357000       0.510023983690519     
   6.48816086650000       0.734013879134286     
   2.22635867440000       0.652103834659568     
  0.776897003100000       0.439607665185322     
  0.283424721400000       0.119677464861813     
  9.862825729999999E-002  1.446532535072821E-002
 
           8 0
 s           6   1.000000    
   2.20862762910000       -1.39099369345762     
   1.91795894900000        1.06634383144279     
  0.497153036800000       0.279085525300636     
  0.192182467300000       0.140096092023924     
  0.150531183200000      -7.782429046166688E-002
  7.818867730000000E-002  2.329085109380348E-002
 p           6   1.000000    
   24.5973356357000       0.532517349876843     
   6.48816086650000       0.754404461436809     
   2.22635867440000       0.671044958991335     
  0.776897003100000       0.451308806343166     
  0.283424721400000       0.122852207801014     
  9.862825729999999E-002  1.140302484729317E-002
 
           9 0
 s           6   1.000000    
   2.20862762910000       -1.30759868645339     
   1.91795894900000        1.00212956196637     
  0.497153036800000       0.262271935408415     
  0.192182467300000       0.131663070319002     
  0.150531183200000      -6.179841310366582E-002
  7.818867730000000E-002  2.188706598898468E-002
 p           6   1.000000    
   24.5973356357000       0.509991940980493     
   6.48816086650000       0.733984607515031     
   2.22635867440000       0.652076668364526     
  0.776897003100000       0.439590852464844     
  0.283424721400000       0.119672902916519     
  9.862825729999999E-002  1.446961841584753E-002
 
          10 0
 s           6   1.000000    
   2.69507309610000       -1.12803279932679     
   2.24947021280000       0.931097706602344     
  0.611851695800000       0.234351506330575     
  0.303726665600000       8.953857041612662E-002
  0.171628270400000       3.114666198752040E-002
  7.154913430000000E-002  1.046399956428169E-002
 p           6   1.000000    
   27.5476401720000       0.926662260326077     
   7.12656627820000        1.19128002899795     
   2.35805520400000       0.896908378891161     
  0.845047262300000       0.472635328643184     
  0.301063057900000       0.123156919648113     
  9.457452580000000E-002  1.320879056177455E-002
 
          11 0
 s           6   1.000000    
   2.69507309610000       -1.12799246967366     
   2.24947021280000       0.931063930418408     
  0.611851695800000       0.234342976389090     
  0.303726665600000       8.953531977297992E-002
  0.171628270400000       3.114550450189642E-002
  7.154913430000000E-002  1.046878258972155E-002
 p           6   1.000000    
   27.5476401720000       0.926587824287532     
   7.12656627820000        1.19121952447425     
   2.35805520400000       0.896840045391146     
  0.845047262300000       0.472608742121451     
  0.301063057900000       0.123151558123781     
  9.457452580000000E-002  1.321519263479320E-002
 
[MO]
Sym=     1a
Ene=   -1.11054403176348     
Spin= Alpha
Occup=     2.00000000
           1 -3.213955411075657E-002
           2 -2.778897464596582E-002
           3 -5.326225191583847E-002
           4 -5.326285472952217E-002
           5 -3.006846546535609E-002
           6 -0.120088128006445     
           7  7.963216175479725E-003
           8 -1.961283954123520E-002
           9  3.353175463031562E-002
          10 -0.217024980096033     
          11 -1.061247625378365E-002
          12  4.364271913018936E-002
          13 -3.324924226585137E-002
          14 -0.283727140194644     
          15  9.421927820999888E-003
          16 -2.143464058666390E-002
          17  3.804486260778767E-002
          18 -0.216915210970336     
          19 -1.076882511347704E-002
          20  5.967568789765128E-003
          21 -5.450065071398835E-002
          22 -0.333334854458557     
          23  1.636669019294970E-003
          24  2.311583066027464E-002
          25  2.097896518360435E-002
          26 -0.334253158530408     
          27  1.434236526059161E-003
          28 -3.018225115635367E-002
          29 -8.888705526673531E-003
Sym=     2a
Ene=  -0.672345481483678     
Spin= Alpha
Occup=     2.00000000
           1 -4.135523954244151E-002
           2 -2.985274871732371E-002
           3  7.024594728495503E-002
           4 -4.022657433557445E-002
           5 -2.461313441577514E-002
           6 -0.110536123849917     
           7  9.288490021778504E-004
           8  9.405223068293873E-003
           9  1.113486341279555E-002
          10  0.248519037352716     
          11  1.436602892175967E-002
          12  3.456577890261928E-002
          13  9.544571626589453E-002
          14 -4.701961294824097E-002
          15 -5.121317892120414E-003
          16  0.166027448724643     
          17  6.008046610645943E-002
          18 -0.145234893873700     
          19 -1.431797883291229E-002
          20  0.113685953513155     
          21 -1.491729483542883E-002
          22  0.506164247447468     
          23 -9.724957102109697E-003
          24  1.420443926100700E-002
          25 -4.450355516679876E-002
          26 -0.491005359093541     
          27  3.634169891087033E-003
          28 -1.949499629156808E-002
          29  8.600208938275134E-003
Sym=     3a
Ene=  -0.670987556716077     
Spin= Alpha
Occup=     2.00000000
           1 -0.132361695517085     
           2 -0.136542289461952     
           3  5.145130604474447E-002
           4  7.730084799815057E-002
           5 -0.137076422744241     
           6 -0.476686645502471     
           7  3.540660515508463E-003
           8 -1.276156739152076E-002
           9  1.717085871415480E-002
          10  0.174998062196050     
          11 -4.848259229270486E-003
          12 -3.399943544719063E-002
          13 -4.421480770618981E-002
          14 -0.205569558336923     
          15 -2.481033339304662E-002
          16  2.641492730546158E-002
          17 -0.128790760852613     
          18  0.267073322927221     
          19  2.130354470797079E-003
          20  5.464407849711134E-003
          21  1.437315708047887E-002
          22 -8.363541840149226E-002
          23 -1.129899430528693E-002
          24  3.545208139128220E-002
          25 -4.214004963305010E-002
          26  0.149260064377651     
          27 -1.455658270066177E-002
          28  2.970462718797445E-002
          29 -6.250876850070655E-002
Sym=     4a
Ene=  -0.488001981104689     
Spin= Alpha
Occup=     2.00000000
           1 -0.112066083154548     
           2 -0.118622738620235     
           3 -0.115827043547458     
           4 -0.115703375320007     
           5 -0.115449044416902     
           6 -0.318956815982716     
           7 -2.047366042885746E-002
           8  5.295194739385902E-002
           9 -9.403992139735898E-002
          10 -0.326791866018872     
          11  2.439406186618585E-002
          12  1.815072692620416E-002
          13  0.142265747319195     
          14  0.237416646311748     
          15 -1.716895166962698E-002
          16  4.351793706746888E-002
          17 -7.651822155219389E-002
          18 -0.326410011434996     
          19  2.374845388245571E-002
          20 -0.131376695291444     
          21  5.799968870595115E-002
          22  0.235999923000137     
          23  1.885062072553002E-002
          24 -8.266154610769472E-002
          25  5.627176241382162E-002
          26  0.236676740959938     
          27  1.908933550444438E-002
          28 -5.252717058151113E-003
          29  9.930114063536828E-002
Sym=     5a
Ene=  -0.333421494641731     
Spin= Alpha
Occup=     2.00000000
           1  6.302338682873017E-002
           2 -1.456008104273178E-002
           3  0.190809091738303     
           4 -0.189683283526111     
           5 -4.945119962220830E-002
           6 -9.588466991696590E-004
           7 -8.059677422632988E-004
           8 -0.108584978114313     
           9 -6.359697946004081E-002
          10  0.288842122211747     
          11 -9.958432773750671E-003
          12  0.163631187515964     
          13  3.167773162468705E-002
          14 -1.034643349082442E-003
          15 -8.650795552721116E-004
          16 -0.280739738595957     
          17 -0.157061974336147     
          18 -0.288187425755964     
          19  1.077112459390399E-002
          20  0.111455850337640     
          21  0.121438022569170     
          22 -0.161137929939755     
          23 -5.196305217740098E-002
          24  0.206372571161512     
          25 -0.168574382822908     
          26  0.162758229955380     
          27  5.301945139038314E-002
          28 -4.052575015636763E-002
          29  0.263240819597011     
Sym=     6a
Ene=  -0.307728487974712     
Spin= Alpha
Occup=     2.00000000
           1  0.114173465879948     
           2  0.126593396398628     
           3 -5.879134604778664E-002
           4 -6.113735933814488E-002
           5  0.119900224966203     
           6  8.810933405543085E-002
           7  5.772288473575871E-002
           8 -0.162479971809084     
           9  0.294546732573040     
          10 -8.330117201407487E-002
          11  4.622505972818376E-002
          12  5.437822713798007E-002
          13  0.277158977814843     
          14 -0.351226426890503     
          15 -3.626150303215317E-002
          16  8.589377203233327E-002
          17 -0.152957062387741     
          18 -8.607653362396769E-002
          19  4.510092550153952E-002
          20 -0.264880449656221     
          21  9.856304488426136E-002
          22  0.198541992561681     
          23 -4.552724809212744E-002
          24  0.155524301179074     
          25 -0.163018298560768     
          26  0.201262334012146     
          27 -4.569599986113046E-002
          28  5.824820485443895E-002
          29 -0.216234088504366     
Sym=     7a
Ene=  -0.285255957127526     
Spin= Alpha
Occup=     2.00000000
           1 -3.176351560755731E-002
           2 -5.833607318875112E-002
           3  0.169679486846738     
           4  0.175190540988545     
           5 -4.157140607146061E-002
           6 -1.997204419961784E-002
           7 -1.889409273740294E-002
           8  7.754139625527391E-002
           9 -0.150757765739629     
          10  6.236381648763451E-003
          11 -2.486201313573210E-002
          12  0.346640752529550     
          13  4.432880148552452E-002
          14 -1.253770393119510E-002
          15  5.582375285639639E-002
          16 -0.117810649902692     
          17  0.212280875760895     
          18  1.132922337393985E-002
          19 -2.806768791687464E-002
          20 -0.217751264075068     
          21 -0.278369668962122     
          22  0.233525586257492     
          23  4.768959881657335E-003
          24  0.244873837165415     
          25  0.141821813304185     
          26  0.227674542479389     
          27  2.292604143082697E-003
          28 -0.249428975580321     
          29 -0.138555466624149     
Sym=     8a
Ene=  -0.258619344723998     
Spin= Alpha
Occup=     2.00000000
           1 -9.986950845511633E-002
           2  0.313041597490096     
           3  5.519086501826614E-003
           4  7.367773133249081E-003
           5 -0.223683594326019     
           6 -2.903568856816580E-003
           7 -0.451917143967036     
           8 -3.893775588117084E-002
           9  6.534296143909439E-002
          10 -9.070058268794387E-004
          11 -0.117056435309944     
          12 -7.626248930408752E-004
          13  2.221092160294768E-002
          14  7.602281090822530E-003
          15 -0.316606363855206     
          16 -3.512027028705238E-002
          17  6.413677910822731E-002
          18  3.318458018372002E-004
          19 -0.116443329830810     
          20 -1.753392188166941E-002
          21  1.061706917693954E-002
          22  4.117061869987484E-003
          23 -0.205335886571999     
          24 -1.638531046157678E-002
          25  4.087685752128555E-002
          26  2.207750623755120E-003
          27 -0.201987032640938     
          28 -2.520659872686472E-002
          29  3.570382916404224E-002
Sym=     9a
Ene=  -0.245803192751130     
Spin= Alpha
Occup=     2.00000000
           1 -0.339614405190545     
           2  7.331649591654461E-002
           3  0.214789717694387     
           4 -0.204758973356148     
           5  0.259322478311281     
           6 -2.497043459464464E-003
           7 -2.921009058136466E-004
           8  0.420942301520177     
           9  0.233366763366649     
          10  0.111316607014445     
          11 -4.379398825662341E-002
          12  0.161188396945408     
          13 -0.147524517976584     
          14  9.437366251578108E-003
          15 -1.434750364289296E-003
          16  7.775475628968583E-002
          17  5.048100023412191E-002
          18 -0.112614059642629     
          19  3.890821289113139E-002
          20 -5.056582353150047E-002
          21  0.200353265122127     
          22 -0.177359459558239     
          23  2.592224231282380E-002
          24 -5.439241764413123E-002
          25  0.107975383871496     
          26  0.180180324392262     
          27 -3.015589591854422E-002
          28  5.961610586091794E-002
          29 -0.101492583843321     
Sym=    10a
Ene=  -0.221504665022755     
Spin= Alpha
Occup=     2.00000000
           1 -8.751197430765238E-002
           2  0.289295316541339     
           3  1.234709911736117E-002
           4  9.100899938569882E-003
           5 -0.195144545048040     
           6 -6.703462224868108E-003
           7 -0.355396205931805     
           8 -3.708711234354902E-002
           9  6.966082348745642E-002
          10 -4.418737804165784E-003
          11  0.311255593255518     
          12  4.478152116557366E-002
          13 -6.724744374527035E-002
          14  1.177057388903032E-002
          15  0.193228617400062     
          16  2.589235178296339E-002
          17 -4.473426924121286E-002
          18 -5.531321450878683E-003
          19  0.313424622057362     
          20  3.127441520776667E-002
          21 -7.114259463618321E-002
          22  1.955848694478083E-003
          23  0.296640720661908     
          24  1.986138804404191E-002
          25 -4.523802798011192E-002
          26  3.676425236660922E-003
          27  0.301203064232121     
          28  2.845758439045589E-002
          29 -4.551997610262942E-002
Sym=    11a
Ene=  -0.203295515154557     
Spin= Alpha
Occup=     2.00000000
           1  0.287043901769754     
           2 -6.528414442473711E-002
           3  0.237783430184576     
           4 -0.252813179829652     
           5 -0.222761656518780     
           6  4.955244412912676E-003
           7 -6.650976822535623E-004
           8 -0.291248440549251     
           9 -0.171361985542267     
          10  5.252883701470493E-002
          11 -5.846961926000079E-002
          12  0.143554744293857     
          13 -0.232581569739554     
          14 -9.312236739626528E-003
          15  2.518793579360965E-003
          16  0.241608363043014     
          17  0.143794587316957     
          18 -4.645992794256667E-002
          19  5.969642895811476E-002
          20 -0.119182837119237     
          21  0.262383211961819     
          22 -4.127165603716589E-002
          23  6.590676877708485E-002
          24 -0.237281877115737     
          25  0.246550110223786     
          26  4.085198494801745E-002
          27 -6.952240911092941E-002
          28  8.514525674348154E-002
          29 -0.343235361187118     
Sym=    12a
Ene=  -0.199047471721378     
Spin= Alpha
Occup=     2.00000000
           1 -0.105809278506745     
           2 -8.482545427881066E-002
           3 -0.172060282895655     
           4 -0.162965699566391     
           5 -9.906367783563853E-002
           6  0.153812615087425     
           7 -9.253540781693129E-002
           8  0.217032796750748     
           9 -0.365821929437644     
          10  0.109184030200914     
          11  7.387897845072360E-002
          12 -0.171947860916331     
          13  0.219473039008179     
          14 -4.077833240914298E-002
          15  8.684248722519811E-002
          16 -0.204691993972583     
          17  0.349552353244716     
          18  0.111512228738720     
          19  7.210990212184287E-002
          20 -9.480047720719477E-002
          21  0.251703771857544     
          22 -0.149185663192767     
          23 -5.816887206379533E-002
          24  0.220079465129779     
          25 -0.259977754203828     
          26 -0.151406473263754     
          27 -5.614792766653268E-002
          28  0.108629184971514     
          29 -0.309403298145765     
Sym=    13a
Ene=  -0.155497979420916     
Spin= Alpha
Occup=     2.00000000
           1  1.534583426860687E-002
           2  2.491621465151161E-002
           3 -0.229979382680969     
           4 -0.225252627797177     
           5  2.226117076300923E-002
           6 -6.004797250419929E-002
           7 -2.196922711752175E-003
           8 -1.950652281601475E-002
           9  6.181919273619955E-002
          10  4.657523703344169E-002
          11 -6.730637390025015E-003
          12 -0.297917902301174     
          13 -0.211895095289845     
          14 -0.265894328446241     
          15  2.761652799987460E-002
          16 -6.742665276015830E-002
          17  0.117653355907025     
          18  4.420654194429885E-002
          19 -5.589518939995900E-003
          20  0.339482262801504     
          21  0.139326696099439     
          22  0.349996043032218     
          23  4.365141700145948E-002
          24  0.248066993513506     
          25  0.352117599467026     
          26  0.354948912449273     
          27  4.295813065708607E-002
          28 -0.438278337536480     
          29 -2.329869371026677E-002
Sym=    14a
Ene=  -0.128361666993624     
Spin= Alpha
Occup=     2.00000000
           1  6.086662071002649E-003
           2 -1.058484335981427E-003
           3 -7.019678422950693E-003
           4  8.799639393504633E-003
           5 -4.381000684116099E-003
           6 -1.088833572516074E-003
           7 -2.856207553940809E-004
           8  2.092418753496196E-002
           9  8.856746458983196E-003
          10  0.197897413154850     
          11  1.263851797133842E-002
          12 -7.524134427901649E-002
          13  0.119089210443247     
          14  1.778358561688562E-003
          15  1.032178599522343E-003
          16  0.219311715631802     
          17  0.124077253368724     
          18 -0.197628961343557     
          19 -1.250299192727435E-002
          20  5.932816047298641E-002
          21 -0.126221559875089     
          22 -0.240903211243424     
          23 -6.944400639599239E-002
          24 -0.469408776854491     
          25 -0.440213706666902     
          26  0.235191991129370     
          27  6.430779238283718E-002
          28 -0.614098564010600     
          29 -0.174630681190640     
Sym=    15a
Ene=  -0.126451496869469     
Spin= Alpha
Occup=     2.00000000
           1 -3.576607492103283E-004
           2  1.834100876790820E-003
           3 -2.703509644579105E-004
           4  1.845561415179241E-004
           5 -1.463591884995763E-003
           6 -1.175093585810862E-005
           7  6.273030745444776E-003
           8  8.649633814713132E-003
           9  3.672866708187943E-003
          10 -9.309693700025082E-003
          11 -0.307277074536693     
          12 -2.578269607325814E-002
          13  5.095905861594354E-002
          14  2.481554074131605E-005
          15  5.744513505219924E-003
          16 -1.184340240819741E-002
          17 -7.971756654332458E-003
          18  9.293633973747118E-003
          19  0.295350556693421     
          20  2.720867246056678E-002
          21 -4.729898035439337E-002
          22  1.107025339605514E-002
          23 -0.602069078552321     
          24 -3.309024995336613E-002
          25  0.136276928659342     
          26 -1.081335696064371E-002
          27  0.604089191022882     
          28  9.552165991465371E-002
          29 -0.101517626175169     
Sym=    16a
Ene=  -9.266526934286422E-002
Spin= Alpha
Occup=     2.00000000
           1  5.987563699571596E-002
           2 -0.191311867662929     
           3  2.433239788533721E-003
           4  2.344481481139951E-003
           5  0.131347513511383     
           6  2.139483051903608E-003
           7  0.117375694997317     
           8  9.296074581393124E-003
           9 -1.819953402861055E-002
          10 -3.141740430742773E-003
          11  0.498163556991353     
          12  4.882676231689985E-002
          13 -9.349257095803147E-002
          14 -8.601786008822544E-003
          15 -0.545648714982828     
          16 -4.964336817537095E-002
          17  9.215696748174193E-002
          18 -3.082091455876844E-003
          19  0.506427700387939     
          20  5.217408358839278E-002
          21 -9.315369434478649E-002
          22  1.848172361424044E-003
          23 -0.226200340794241     
          24 -2.619583972247352E-002
          25  4.361564086553407E-002
          26  1.469266258313901E-003
          27 -0.213836243914612     
          28 -2.047247610271575E-002
          29  4.338203244308286E-002
Sym=    17a
Ene=   0.314856449172746     
Spin= Alpha
Occup=     0.00000000
           1 -8.883305694105159E-002
           2  0.287838534507876     
           3 -3.643967042059875E-003
           4 -3.747633346014850E-003
           5 -0.195985254860540     
           6 -1.344244647004311E-002
           7  0.139675720218019     
           8  5.526686931484675E-003
           9 -1.136216006047229E-002
          10  2.813270028896075E-003
          11  0.229611310327429     
          12  2.216786153400473E-002
          13 -4.274110334615077E-002
          14  2.441928991740059E-002
          15  0.768361955520136     
          16  6.852554299303738E-002
          17 -0.127186586128560     
          18  2.866964966367166E-003
          19  0.193418745889045     
          20  1.999169179337998E-002
          21 -3.541263173202095E-002
          22 -2.419850958667405E-003
          23 -0.604588720360236     
          24 -5.321218775287080E-002
          25  0.112258858839749     
          26 -2.176956487039277E-003
          27 -0.590228776265732     
          28 -6.347655073595743E-002
          29  0.103293576204618     
Sym=    18a
Ene=   0.335728212265661     
Spin= Alpha
Occup=     0.00000000
           1  1.181615885375341E-002
           2 -3.155857494840254E-003
           3  5.386633353562766E-003
           4 -5.394992973428664E-003
           5 -8.539110983481596E-003
           6  2.864624580039424E-004
           7  6.513712882111730E-003
           8  1.492233716143350E-002
           9  6.584249937833225E-003
          10 -8.611333687894927E-003
          11  0.765610679375825     
          12  7.382181118222930E-002
          13 -0.138972096886922     
          14 -6.557848560275933E-004
          15 -2.123598997716224E-002
          16 -1.281721895066844E-003
          17  3.737256359566361E-003
          18  8.625811899007156E-003
          19 -0.774694031136728     
          20 -7.681609653078336E-002
          21  0.139253754745455     
          22 -1.545137021778929E-004
          23 -0.395923592254562     
          24 -3.708551901912015E-002
          25  7.045327275027555E-002
          26  2.154090055955522E-004
          27  0.424230062406131     
          28  4.171917539910941E-002
          29 -7.454093975648300E-002
Sym=    19a
Ene=   0.516033190315295     
Spin= Alpha
Occup=     0.00000000
           1 -0.193924054161817     
           2  0.217807345523807     
           3  0.113410287677440     
           4 -0.847112806747407     
           5  0.353255493616770     
           6 -0.543661674254199     
           7  9.277450447507719E-002
           8 -0.418649783965669     
           9  0.131510298214532     
          10 -0.297809752574902     
          11 -2.519676391310138E-003
          12  8.794832402403899E-002
          13  5.049525570951576E-002
          14  0.698790350302552     
          15  1.031552133932694E-002
          16 -0.275413796929148     
          17  5.773681135837400E-002
          18  0.955495515511516     
          19 -3.223951507377715E-002
          20 -0.172721607982858     
          21 -0.284724061263394     
          22  7.504542774065584E-002
          23 -2.590709895527790E-002
          24  5.216456518915662E-002
          25 -0.145324407058155     
          26 -0.529464536653977     
          27  3.056194320829685E-002
          28 -0.323464448290812     
          29 -8.524064395916800E-002
Sym=    20a
Ene=   0.519830857115401     
Spin= Alpha
Occup=     0.00000000
           1  0.336283111532747     
           2  0.102734818324361     
           3 -0.882277714494281     
           4  8.664397790943067E-002
           5 -5.279904639383400E-002
           6 -0.560669785376706     
           7  9.838616529188923E-002
           8 -6.254321846375435E-003
           9  0.390457719175640     
          10   1.00889595289562     
          11 -3.173624922821373E-002
          12  0.349377423354452     
          13 -3.883544836946306E-003
          14  0.720223543768698     
          15  1.263085495375790E-002
          16  6.037974022022048E-002
          17  0.253997865327288     
          18 -0.272361068099176     
          19 -7.439964676698317E-004
          20 -0.130357264850934     
          21 -5.449129514386673E-002
          22 -0.524222099536412     
          23  3.801216523309954E-002
          24  0.211330993450225     
          25  0.251835174754659     
          26  2.270288728584979E-002