[Molden Format]
[Title]
[Atoms] AU
O      1     8  0.47942348377545E+01 -0.65297136449812E+00  0.00000000000000E+00
H      2     1  0.62399656627295E+01  0.47199217411255E+00  0.00000000000000E+00
H      3     1  0.33485040127795E+01  0.47199217411255E+00  0.00000000000000E+00
[GTO]
           1 0
 s           6   1.000000    
   3.48359494310000       -1.31490121734214     
   2.85986576440000        1.11664506795896     
  0.740681029000000       0.295165847129511     
  0.344926919200000       8.151847448919031E-002
  0.261978532900000       3.952302068235677E-002
  9.461635039999999E-002  1.204909647493236E-002
 p           6   1.000000    
   37.6414713255000        1.48139896990043     
   9.71308856170000        1.80138887820225     
   3.13717714760000        1.31103332679290     
   1.12138051620000       0.636039637152615     
  0.398077926500000       0.183497349710535     
  0.123047771000000       1.853377976086632E-002
 
           2 0
 s           8   1.000000    
   337.005012218500       3.703851559420269E-002
   53.3105310515000       6.297781664259693E-002
   12.2082534814000       0.114866763058266     
   3.41882690980000       0.174097375156938     
   1.10879012580000       0.217206268512797     
  0.478717798300000       0.125980982252286     
  0.212137087700000       8.830227734977138E-002
  6.905810860000000E-002  2.643491635025651E-003
 
           3 0
 s           8   1.000000    
   337.005012218500       3.703851559420268E-002
   53.3105310515000       6.297781664259691E-002
   12.2082534814000       0.114866763058266     
   3.41882690980000       0.174097375156938     
   1.10879012580000       0.217206268512797     
  0.478717798300000       0.125980982252286     
  0.212137087700000       8.830227734977135E-002
  6.905810860000000E-002  2.643491635025653E-003
 
[MO]
Sym=     1a
Ene=   -1.27808058527613     
Spin= Alpha
Occup=     2.00000000
           1 -0.862719961323784     
           2  2.021351067864771E-015
           3 -1.495218981860225E-002
           4  1.134296956342843E-016
           5 -0.129977729714800     
           6 -0.129977729714801     
Sym=     2a
Ene=  -0.506199033617712     
Spin= Alpha
Occup=     2.00000000
           1 -1.571124743241144E-015
           2  0.689118687344404     
           3  7.500450109156565E-015
           4 -4.979482336461223E-016
           5  0.342965422345028     
           6 -0.342965422345024     
Sym=     3a
Ene=  -0.449146019938195     
Spin= Alpha
Occup=     2.00000000
           1  0.351413229843647     
           2  2.350266076520006E-015
           3 -0.821949989052549     
           4  7.795920198181209E-016
           5 -0.240793109276837     
           6 -0.240793109276840     
Sym=     4a
Ene=  -0.392319012896882     
Spin= Alpha
Occup=     2.00000000
           1  2.749924755818986E-016
           2 -3.471854837020980E-016
           3 -6.504079114078898E-016
           4  -1.00000000000000     
           5 -4.217769227027366E-016
           6  0.000000000000000E+000
Sym=     5a
Ene=   0.319073268522279     
Spin= Alpha
Occup=     0.00000000
           1 -0.934922478271879     
           2 -6.711329298993594E-016
           3 -0.762761246552705     
           4 -2.017090281242014E-018
           5  0.867043431131319     
           6  0.867043431131317     
Sym=     6a
Ene=   0.355496979160628     
Spin= Alpha
Occup=     0.00000000
           1  1.381347438755949E-016
           2  -1.00387625341728     
           3  3.915665724405148E-016
           4 -3.130580627985545E-017
           5  0.905570319579470     
           6 -0.905570319579470     
