[Molden Format]
[Title]
[Atoms] AU
O      1     8  0.47942348379278E+01 -0.63012219164109E+00  0.00000000000000E+00
H      2     1  0.62472821753794E+01  0.46056758761659E+00  0.00000000000000E+00
H      3     1  0.33411874999564E+01  0.46056758775148E+00  0.00000000000000E+00
[GTO]
           1 0
 s           6   1.000000    
   3.48359494310000       -1.31501931943377     
   2.85986576440000        1.11675661643784     
  0.740681029000000       0.295204641402821     
  0.344926919200000       8.152653473087960E-002
  0.261978532900000       3.952710503294634E-002
  9.461635039999999E-002  1.202932960254101E-002
 p           6   1.000000    
   37.6414713255000        1.48181857413703     
   9.71308856170000        1.80184192566644     
   3.13717714760000        1.31149908954660     
   1.12138051620000       0.636210065753895     
  0.398077926500000       0.183522835670084     
  0.123047771000000       1.849651635186703E-002
 
           2 0
 s           8   1.000000    
   337.005012218500       3.720157064563658E-002
   53.3105310515000       6.312105081135802E-002
   12.2082534814000       0.115307952882848     
   3.41882690980000       0.174612780181769     
   1.10879012580000       0.218076652026024     
  0.478717798300000       0.126141708891856     
  0.212137087700000       8.841474844972569E-002
  6.905810860000000E-002  2.320257768583618E-003
 
           3 0
 s           8   1.000000    
   337.005012218500       3.720157063646521E-002
   53.3105310515000       6.312105080330918E-002
   12.2082534814000       0.115307952858036     
   3.41882690980000       0.174612780152794     
   1.10879012580000       0.218076651977072     
  0.478717798300000       0.126141708882839     
  0.212137087700000       8.841474844341533E-002
  6.905810860000000E-002  2.320257786783728E-003
 
[MO]
Sym=     1a
Ene=   -1.27723362023707     
Spin= Alpha
Occup=     2.00000000
           1 -0.861045656831426     
           2 -1.764621606668606E-011
           3 -1.518420791387454E-002
           4  1.562954786864146E-018
           5 -0.130651095351990     
           6 -0.130651095341053     
Sym=     2a
Ene=  -0.509773165881475     
Spin= Alpha
Occup=     2.00000000
           1 -8.724741561963818E-011
           2  0.686142167313884     
           3  1.518812690597662E-010
           4  6.117094709398718E-016
           5  0.342008954503955     
           6 -0.342008954487685     
Sym=     3a
Ene=  -0.447264491048610     
Spin= Alpha
Occup=     2.00000000
           1  0.348091902185664     
           2  1.293689401845728E-010
           3 -0.828375277729622     
           4 -8.866251914246606E-016
           5 -0.236620378709839     
           6 -0.236620378829552     
Sym=     4a
Ene=  -0.392629070907002     
Spin= Alpha
Occup=     2.00000000
           1 -3.441857034677872E-016
           2  4.445630445046678E-016
           3  9.162154401809258E-016
           4  -1.00000000000000     
           5  2.199929190051210E-016
           6  0.000000000000000E+000
Sym=     5a
Ene=   0.324632679433444     
Spin= Alpha
Occup=     0.00000000
           1 -0.949815016036544     
           2  3.869795625477833E-009
           3 -0.752141191601005     
           4 -1.401268231795149E-016
           5  0.874031727929915     
           6  0.874031734741753     
Sym=     6a
Ene=   0.371745288856743     
Spin= Alpha
Occup=     0.00000000
           1 -3.847800666994236E-009
           2  -1.01769933916229     
           3 -3.019000472298535E-009
           4 -8.559596762460073E-017
           5  0.911217913802813     
           6 -0.911217906881371     
