[Molden Format]
[Title]
[Atoms] AU
Zn     1    30  0.41018135345826E+00 -0.14259524425330E+01  0.17410238302005E+00
H      2     1 -0.57528404306047E+01 -0.40558292257901E+01 -0.30528551910473E+01
C      3     6 -0.44161884259418E+01 -0.24786562229814E+01 -0.31510109793950E+01
H      4     1 -0.42086475493907E+01 -0.18093606494874E+01 -0.50992795093920E+01
H      5     1 -0.50465354239646E+01 -0.93686036470004E+00 -0.19276586303248E+01
O      6     8 -0.19509247288492E+01 -0.33157397167901E+01 -0.21757972462189E+01
H      7     1 -0.13082156914176E+01 -0.46892505434376E+01 -0.32126155742519E+01
H      8     1 -0.37739683362129E+01 -0.36250877480421E+01  0.51641207891309E+01
C      9     6 -0.24299743681320E+01 -0.48145982037741E+01  0.41320303665534E+01
H     10     1 -0.18238143510061E+01 -0.64246764761311E+01  0.52810550303100E+01
H     11     1 -0.32559652270686E+01 -0.54809585225789E+01  0.23608973998664E+01
O     12     8 -0.18346665560405E+00 -0.33173857248196E+01  0.34402165724929E+01
H     13     1  0.72889923198594E+00 -0.28601176531177E+01  0.49666782681221E+01
H     14     1  0.65982197081279E+01 -0.31692365928879E+01 -0.35239972530258E+01
C     15     6  0.58834480487492E+01 -0.18587267174262E+01 -0.20909768951379E+01
H     16     1  0.73612329728919E+01 -0.13689726496815E+01 -0.72663362059874E+00
H     17     1  0.51482463349208E+01 -0.15133863035561E+00 -0.29937940350927E+01
O     18     8  0.37422138342037E+01 -0.30447115113778E+01 -0.76829468985939E+00
H     19     1  0.43033237852722E+01 -0.45853235697097E+01  0.60044796127181E-01
N     20     7  0.76180845106157E-01  0.62931704255589E+01  0.27445703763293E+00
N     21     7  0.18302495105104E+00  0.22097748974723E+01 -0.27115905003989E+00
C     22     6  0.27751036240199E+00  0.40566330207401E+01  0.14843474322815E+01
C     23     6  0.57500401023512E+00  0.37464188146832E+01  0.42569834143085E+01
C     24     6 -0.14859191362850E+00  0.59143945228222E+01 -0.22946096671626E+01
C     25     6 -0.80824506576993E-01  0.33571509075830E+01 -0.26295459489280E+01
H     26     1  0.86873047040904E-01  0.80086951814156E+01  0.11433517252305E+01
H     27     1  0.24453779026253E+01  0.29725951645209E+01  0.47308473242201E+01
H     28     1 -0.88869816560076E+00  0.24919251229959E+01  0.50297872171482E+01
H     29     1  0.40059811832375E+00  0.55674116725047E+01  0.52286078019383E+01
H     30     1 -0.33616709809741E+00  0.74589051047696E+01 -0.36257265699132E+01
H     31     1 -0.20550938331683E+00  0.22840955907998E+01 -0.43693772297476E+01
[GTO]
           1 0
 s           5   1.000000    
   1.82046632240000       0.239104418492628     
   1.13274582070000      -0.434864697901884     
  0.315046004900000       8.857352567403059E-003
  0.148617277200000       0.165566741488108     
  5.129314220000000E-002  1.396237994400500E-002
 p           3   1.000000    
   1.22375302100000      -0.197436619616654     
  0.183640111800000       0.157456819899770     
  4.740596480000000E-002  5.560255608973458E-003
 
           2 0
 s           8   1.000000    
   337.005012218500       3.584644347754619E-002
   53.3105310515000       6.192251007732582E-002
   12.2082534814000       0.111637369382128     
   3.41882690980000       0.170314071663277     
   1.10879012580000       0.210837804961044     
  0.478717798300000       0.124782002369014     
  0.212137087700000       8.746323274022337E-002
  6.905810860000000E-002  4.986262816255838E-003
 
           3 0
 s           6   1.000000    
   2.20862762910000       -1.32834824404142     
   1.91795894900000        1.01810642460450     
  0.497153036800000       0.266455240487730     
  0.192182467300000       0.133761256328614     
  0.150531183200000      -6.577277888586862E-002
  7.818867730000000E-002  2.223633401978828E-002
 p           6   1.000000    
   24.5973356357000       0.515781634956185     
   6.48816086650000       0.739263443368568     
   2.22635867440000       0.656976933915628     
  0.776897003100000       0.442622171373938     
  0.283424721400000       0.120495402733807     
  9.862825729999999E-002  1.369078096011043E-002
 
           4 0
 s           8   1.000000    
   337.005012218500       3.573243163096495E-002
   53.3105310515000       6.182084137406072E-002
   12.2082534814000       0.111328149740808     
   3.41882690980000       0.169950848791569     
   1.10879012580000       0.210228241832392     
  0.478717798300000       0.124665162696626     
  0.212137087700000       8.738146504235993E-002
  6.905810860000000E-002  5.208487037269472E-003
 
           5 0
 s           8   1.000000    
   337.005012218500       3.567908365360317E-002
   53.3105310515000       6.177322544954136E-002
   12.2082534814000       0.111183439961539     
   3.41882690980000       0.169780809479950     
   1.10879012580000       0.209942989577024     
  0.478717798300000       0.124610363675540     
  0.212137087700000       8.734311494261796E-002
  6.905810860000000E-002  5.312360622322465E-003
 
           6 0
 s           6   1.000000    
   3.48359494310000       -1.32380997546957     
   2.85986576440000        1.12506548677942     
  0.740681029000000       0.298098771261081     
  0.344926919200000       8.212687500749025E-002
  0.261978532900000       3.983140000557350E-002
  9.461635039999999E-002  1.054687993985144E-002
 p           6   1.000000    
   37.6414713255000        1.51286008412758     
   9.71308856170000        1.83528633020202     
   3.13717714760000        1.34607280526495     
   1.12138051620000       0.648805937771072     
  0.398077926500000       0.185375274617580     
  0.123047771000000       1.568693873873010E-002
 
           7 0
 s           8   1.000000    
   337.005012218500       3.789838782582436E-002
   53.3105310515000       6.373006552276310E-002
   12.2082534814000       0.117191890750554     
   3.41882690980000       0.176809565528201     
   1.10879012580000       0.221794259654432     
  0.478717798300000       0.126819470951195     
  0.212137087700000       8.888900880027542E-002
  6.905810860000000E-002  9.311744120538151E-004
 
           8 0
 s           8   1.000000    
   337.005012218500       3.580799971543428E-002
   53.3105310515000       6.188824248759528E-002
   12.2082534814000       0.111533110141354     
   3.41882690980000       0.170191622754488     
   1.10879012580000       0.210632274873450     
  0.478717798300000       0.124742646755146     
  0.212137087700000       8.743569063668544E-002
  6.905810860000000E-002  5.061230234353571E-003
 
           9 0
 s           6   1.000000    
   2.20862762910000       -1.32871503258355     
   1.91795894900000        1.01838884845708     
  0.497153036800000       0.266529189043973     
  0.192182467300000       0.133798346051343     
  0.150531183200000      -6.584311050699511E-002
  7.818867730000000E-002  2.224250805769756E-002
 p           6   1.000000    
   24.5973356357000       0.515882846901858     
   6.48816086650000       0.739355541856543     
   2.22635867440000       0.657062447492173     
  0.776897003100000       0.442675045698274     
  0.283424721400000       0.120509749064567     
  9.862825729999999E-002  1.367710929294666E-002
 
          10 0
 s           8   1.000000    
   337.005012218500       3.592531992976403E-002
   53.3105310515000       6.199277286814774E-002
   12.2082534814000       0.111851260045063     
   3.41882690980000       0.170565219728108     
   1.10879012580000       0.211259469464526     
  0.478717798300000       0.124862616682180     
  0.212137087700000       8.751964856941273E-002
  6.905810860000000E-002  4.832336372777800E-003
 
          11 0
 s           8   1.000000    
   337.005012218500       3.572773047755603E-002
   53.3105310515000       6.181664645584457E-002
   12.2082534814000       0.111315398098871     
   3.41882690980000       0.169935866598568     
   1.10879012580000       0.210203105423087     
  0.478717798300000       0.124660336944258     
  0.212137087700000       8.737808783228924E-002
  6.905810860000000E-002  5.217643410575840E-003
 
          12 0
 s           6   1.000000    
   3.48359494310000       -1.32369703698631     
   2.85986576440000        1.12495866168469     
  0.740681029000000       0.298061505382690     
  0.344926919200000       8.211915708774810E-002
  0.261978532900000       3.982748692991557E-002
  9.461635039999999E-002  1.056606731405485E-002
 p           6   1.000000    
   37.6414713255000        1.51246385727946     
   9.71308856170000        1.83486034690247     
   3.13717714760000        1.34562998122183     
   1.12138051620000       0.648645314440851     
  0.398077926500000       0.185352053143769     
  0.123047771000000       1.572348157930003E-002
 
          13 0
 s           8   1.000000    
   337.005012218500       3.785635555823173E-002
   53.3105310515000       6.369347331136457E-002
   12.2082534814000       0.117078320116765     
   3.41882690980000       0.176677323948840     
   1.10879012580000       0.221570104280270     
  0.478717798300000       0.126779010677712     
  0.212137087700000       8.886069763597526E-002
  6.905810860000000E-002  1.015323701894320E-003
 
          14 0
 s           8   1.000000    
   337.005012218500       3.592760675609410E-002
   53.3105310515000       6.199480905378777E-002
   12.2082534814000       0.111857460834811     
   3.41882690980000       0.170572499438164     
   1.10879012580000       0.211271693994697     
  0.478717798300000       0.124864951221737     
  0.212137087700000       8.752128233199141E-002
  6.905810860000000E-002  4.827871387366461E-003
 
          15 0
 s           6   1.000000    
   2.20862762910000       -1.32899368802573     
   1.91795894900000        1.01860341066632     
  0.497153036800000       0.266585369022318     
  0.192182467300000       0.133826523744635     
  0.150531183200000      -6.589654441980297E-002
  7.818867730000000E-002  2.224719857960745E-002
 p           6   1.000000    
   24.5973356357000       0.515959713269692     
   6.48816086650000       0.739425482693394     
   2.22635867440000       0.657127388119408     
  0.776897003100000       0.442715198889707     
  0.283424721400000       0.120520643778434     
  9.862825729999999E-002  1.366672491000959E-002
 
          16 0
 s           8   1.000000    
   337.005012218500       3.585983350729614E-002
   53.3105310515000       6.193444214706060E-002
   12.2082534814000       0.111673681426287     
   3.41882690980000       0.170356714479514     
   1.10879012580000       0.210909389278693     
  0.478717798300000       0.124795700029311     
  0.212137087700000       8.747281871103510E-002
  6.905810860000000E-002  4.960143057581471E-003
 
          17 0
 s           8   1.000000    
   337.005012218500       3.568884300401595E-002
   53.3105310515000       6.178193826093869E-002
   12.2082534814000       0.111209913815408     
   3.41882690980000       0.169811919937192     
   1.10879012580000       0.209995174262168     
  0.478717798300000       0.124620394557165     
  0.212137087700000       8.735013488241822E-002
  6.905810860000000E-002  5.293363408779935E-003
 
          18 0
 s           6   1.000000    
   3.48359494310000       -1.32377472618132     
   2.85986576440000        1.12503214532753     
  0.740681029000000       0.298087139952261     
  0.344926919200000       8.212446614937452E-002
  0.261978532900000       3.983017868323014E-002
  9.461635039999999E-002  1.055286892220111E-002
 p           6   1.000000    
   37.6414713255000        1.51273642531871     
   9.71308856170000        1.83515338730200     
   3.13717714760000        1.34593459955600     
   1.12138051620000       0.648755809132184     
  0.398077926500000       0.185368028623053     
  0.123047771000000       1.569834538135432E-002
 
          19 0
 s           8   1.000000    
   337.005012218500       3.794541775978041E-002
   53.3105310515000       6.377098648191015E-002
   12.2082534814000       0.117318954382046     
   3.41882690980000       0.176957489343504     
   1.10879012580000       0.222045053112864     
  0.478717798300000       0.126864677048824     
  0.212137087700000       8.892064064026826E-002
  6.905810860000000E-002  8.369645087634151E-004
 
          20 0
 s           6   1.000000    
   2.69507309610000       -1.15562526127127     
   2.24947021280000       0.954211066162101     
  0.611851695800000       0.240188892416802     
  0.303726665600000       9.176303997139991E-002
  0.171628270400000       3.193899743309937E-002
  7.154913430000000E-002  7.142860438272725E-003
 p           6   1.000000    
   27.5476401720000       0.977002522071550     
   7.12656627820000        1.23150101320038     
   2.35805520400000       0.943047966156066     
  0.845047262300000       0.490389923841755     
  0.301063057900000       0.126693030959665     
  9.457452580000000E-002  8.731193119718766E-003
 
          21 0
 s           6   1.000000    
   2.69507309610000       -1.14441124290454     
   2.24947021280000       0.944816299138627     
  0.611851695800000       0.237816135066313     
  0.303726665600000       9.085886553884094E-002
  0.171628270400000       3.161687800204028E-002
  7.154913430000000E-002  8.504555638777453E-003
 p           6   1.000000    
   27.5476401720000       0.956697751023970     
   7.12656627820000        1.21545147831351     
   2.35805520400000       0.924455857382210     
  0.845047262300000       0.483284743598006     
  0.301063057900000       0.125289096743401     
  9.457452580000000E-002  1.057405842761192E-002
 
          22 0
 s           6   1.000000    
   2.20862762910000       -1.42662756865854     
   1.91795894900000        1.09378304016326     
  0.497153036800000       0.286270118102127     
  0.192182467300000       0.143699568463588     
  0.150531183200000      -8.471516047674117E-002
  7.818867730000000E-002  2.389070299350428E-002
 p           6   1.000000    
   24.5973356357000       0.541562596364062     
   6.48816086650000       0.762511922752778     
   2.22635867440000       0.678586194192466     
  0.776897003100000       0.455955033153901     
  0.283424721400000       0.124112680881991     
  9.862825729999999E-002  1.014311070719697E-002
 
          23 0
 s           6   1.000000    
   2.20862762910000       -1.30816026112402     
   1.91795894900000        1.00256196363028     
  0.497153036800000       0.262385153314036     
  0.192182467300000       0.131719856165117     
  0.150531183200000      -6.190586457397079E-002
  7.818867730000000E-002  2.189651865108261E-002
 p           6   1.000000    
   24.5973356357000       0.510150307020087     
   6.48816086650000       0.734129271818848     
   2.22635867440000       0.652210928528961     
  0.776897003100000       0.439673942797846     
  0.283424721400000       0.119695448548214     
  9.862825729999999E-002  1.444839874817215E-002
 
          24 0
 s           6   1.000000    
   2.20862762910000       -1.36089898540298     
   1.91795894900000        1.04317046203442     
  0.497153036800000       0.273017898930926     
  0.192182467300000       0.137052824291753     
  0.150531183200000      -7.202487275769967E-002
  7.818867730000000E-002  2.278425741805715E-002
 p           6   1.000000    
   24.5973356357000       0.524613966164311     
   6.48816086650000       0.747276406678053     
   2.22635867440000       0.664419606697683     
  0.776897003100000       0.447220840383068     
  0.283424721400000       0.121743118798211     
  9.862825729999999E-002  1.249027794577675E-002
 
          25 0
 s           6   1.000000    
   2.20862762910000       -1.35601935592482     
   1.91795894900000        1.03941311849128     
  0.497153036800000       0.272034091585294     
  0.192182467300000       0.136559386576180     
  0.150531183200000      -7.108627324028405E-002
  7.818867730000000E-002  2.270211821280572E-002
 p           6   1.000000    
   24.5973356357000       0.523309005887203     
   6.48816086650000       0.746095600657010     
   2.22635867440000       0.663322501431832     
  0.776897003100000       0.446543380810062     
  0.283424721400000       0.121559314294261     
  9.862825729999999E-002  1.266860559989428E-002
 
          26 0
 s           8   1.000000    
   337.005012218500       3.784229356923987E-002
   53.3105310515000       6.368122715050316E-002
   12.2082534814000       0.117040322808240     
   3.41882690980000       0.176633074450604     
   1.10879012580000       0.221495109938392     
  0.478717798300000       0.126765462391403     
  0.212137087700000       8.885121750777233E-002
  6.905810860000000E-002  1.043465652745519E-003
 
          27 0
 s           8   1.000000    
   337.005012218500       3.537008699548938E-002
   53.3105310515000       6.149688686363387E-002
   12.2082534814000       0.110345005812232     
   3.41882690980000       0.168794909059747     
   1.10879012580000       0.208290433399623     
  0.478717798300000       0.124291367866668     
  0.212137087700000       8.711986903863417E-002
  6.905810860000000E-002  5.912650825439124E-003
 
          28 0
 s           8   1.000000    
   337.005012218500       3.532935475107611E-002
   53.3105310515000       6.146039093051333E-002
   12.2082534814000       0.110234449531953     
   3.41882690980000       0.168664817994077     
   1.10879012580000       0.208072547811019     
  0.478717798300000       0.124249115584102     
  0.212137087700000       8.709029890495236E-002
  6.905810860000000E-002  5.991609985967577E-003
 
          29 0
 s           8   1.000000    
   337.005012218500       3.553261457929350E-002
   53.3105310515000       6.164235187987220E-002
   12.2082534814000       0.110786064915802     
   3.41882690980000       0.169313693389194     
   1.10879012580000       0.209159726739543     
  0.478717798300000       0.124459493103337     
  0.212137087700000       8.723753026297958E-002
  6.905810860000000E-002  5.597194803614668E-003
 
          30 0
 s           8   1.000000    
   337.005012218500       3.603936093256920E-002
   53.3105310515000       6.209425219206430E-002
   12.2082534814000       0.112160455119536     
   3.41882690980000       0.170928132052869     
   1.10879012580000       0.211869050542158     
  0.478717798300000       0.124978853211764     
  0.212137087700000       8.760099318402162E-002
  6.905810860000000E-002  4.609517136754840E-003
 
          31 0
 s           8   1.000000    
   337.005012218500       3.581657620367511E-002
   53.3105310515000       6.189588855720952E-002
   12.2082534814000       0.111556370125555     
   3.41882690980000       0.170218942446116     
   1.10879012580000       0.210678127752765     
  0.478717798300000       0.124751430347462     
  0.212137087700000       8.744183763354556E-002
  6.905810860000000E-002  5.044508744298452E-003
 
[MO]
Sym=     1a
Ene=   -1.65465052713828     
Spin= Alpha
Occup=     2.00000000
           1 -4.308744107675575E-002
           2  2.043306489644127E-004
           3  4.989524847053883E-003
           4  5.101532732260152E-004
           5 -2.136669691875521E-002
           6 -8.734806347187345E-002
           7 -2.804323223819678E-002
           8  9.788350880572727E-003
           9 -1.050029877855631E-002
          10 -2.129714531999852E-002
          11 -2.309706326286145E-002
          12 -0.440835748082805     
          13  1.027853309465844E-002
          14 -1.187249516502981E-003
          15  7.617272404184299E-003
          16 -6.083268002085015E-002
          17 -2.576272631204467E-002
          18 -0.102624357987838     
          19 -3.127790705025529E-002
          20 -2.083504405553049E-002
          21  8.556850388541983E-003
          22 -2.533764111997271E-002
          23 -3.155783495412954E-002
          24 -0.519630944553469     
          25  1.044689406571767E-002
          26  6.229298930745647E-003
          27 -7.205479291702449E-003
          28 -6.984312324076260E-002
          29 -2.010653921331851E-002
          30 -8.241110220489289E-002
          31  2.253156902698620E-002
          32  1.314206294786474E-002
          33 -1.412186563875885E-002
          34 -2.024986094552520E-002
          35 -2.175186861984498E-002
          36 -0.419608307236350     
          37 -1.089303012861008E-002
          38 -2.336512477016195E-003
          39  3.403996620020376E-003
          40 -5.895559321437881E-002
          41 -5.895320649493851E-002
          42 -3.576317969159736E-005
          43  9.038736137121658E-003
          44  3.213331991287624E-003
          45 -6.304536688475429E-002
          46  6.086256671055811E-004
          47 -1.257063645988197E-002
          48  1.241589291220326E-003
          49 -5.072881366875654E-002
          50  7.694583374517915E-004
          51 -1.567371985928793E-003
          52  7.781006103323417E-003
          53 -1.602454487263138E-002
          54  5.505056303046495E-004
          55 -3.463947281926087E-003
          56  6.511904469665244E-003
          57 -3.620948223965045E-002
          58 -9.348509069106574E-004
          59  5.444695980314429E-003
          60 -7.878826643390529E-003
          61 -3.600333251747002E-002
          62 -6.534219055512278E-004
          63 -5.917915557067668E-003
          64 -1.025048226304551E-002
          65 -1.343624563910014E-002
          66 -6.856634096211335E-003
          67 -8.240832502007580E-003
          68 -4.806207502747971E-003
          69 -8.679816996375669E-003
          70 -1.252066404621433E-002
Sym=     2a
Ene=   -1.62617110059092     
Spin= Alpha
Occup=     2.00000000
           1  1.148273033194095E-002
           2 -2.443524243313128E-003
           3  1.209998256308792E-002
           4 -1.613027874847448E-002
           5  2.059036011963941E-002
           6  9.290009690622435E-002
           7  3.070836950844454E-002
           8 -1.055866735178818E-002
           9  1.372781304315028E-002
          10  2.175580413008928E-002
          11  2.171164291420199E-002
          12  0.432955061184459     
          13 -8.561004113862765E-003
          14  2.651870504140773E-004
          15 -5.595886905213015E-003
          16  5.752031620689803E-002
          17 -2.780202540686534E-002
          18 -0.127550269463087     
          19 -3.713719815359204E-002
          20 -2.615340511094572E-002
          21  1.464182999775292E-002
          22 -2.791936547272623E-002
          23 -2.399256177313114E-002
          24 -0.594569720644511     
          25  9.986493712938541E-003
          26  4.016263621548262E-003
          27 -8.493897189713925E-003
          28 -7.944743802651355E-002
          29  6.980317870070178E-003
          30  2.826332356794673E-002
          31 -7.768063343386626E-003
          32 -5.316195119699575E-003
          33  5.584179085520682E-003
          34  6.620865183741913E-003
          35  8.475861203546797E-003
          36  0.135845425644402     
          37  3.572713701309144E-003
          38  2.222031330575036E-004
          39 -9.142925624077762E-004
          40  1.529509938756279E-002
          41  0.147006130282294     
          42  1.202351817813015E-004
          43 -2.126561266686887E-002
          44 -8.179506381894330E-003
          45  0.144244309862299     
          46 -8.947771375439812E-004
          47  2.003899984407618E-002
          48 -2.105644880225916E-003
          49  0.124546788352423     
          50 -2.016958812962457E-003
          51  2.690561817789105E-003
          52 -2.050952792847821E-002
          53  4.563541252603283E-002
          54 -1.913769837386690E-003
          55  7.866590638096841E-005
          56 -1.463981976575787E-002
          57  9.175002880178887E-002
          58  2.346109259680105E-003
          59 -1.309091740918657E-002
          60  1.972728673041016E-002
          61  9.168531132971361E-002
          62  2.155493448836938E-003
          63  7.941236490168905E-003
          64  2.466584271386000E-002
          65  3.413384165245591E-002
          66  8.573805897462769E-003
          67  7.033293622962742E-003
          68  1.138131426754919E-002
          69  2.176812772318672E-002
          70  2.441031749373920E-002
Sym=     3a
Ene=   -1.62335073608691     
Spin= Alpha
Occup=     2.00000000
           1  1.263814648715084E-003
           2  1.618198862022030E-002
           3 -5.882912850709117E-004
           4 -1.483293652880127E-003
           5 -2.136414480147725E-002
           6 -9.355117613682681E-002
           7 -3.210232039875732E-002
           8  9.782259589398649E-003
           9 -1.283668845317533E-002
          10 -2.112058591888184E-002
          11 -2.242767997036871E-002
          12 -0.434153677039114     
          13  8.091987461976849E-003
          14 -1.235020843344157E-003
          15  6.981852117016698E-003
          16 -5.401734237664606E-002
          17 -9.779934221648150E-003
          18 -3.853523641130938E-002
          19 -1.298321439109583E-002
          20 -8.443253592576840E-003
          21  3.565810010868302E-003
          22 -9.059579823607887E-003
          23 -1.399075110786445E-002
          24 -0.178662190510665     
          25  3.258139522645860E-003
          26  2.060220247153681E-003
          27 -2.564713964923630E-003
          28 -2.209739456514426E-002
          29  3.300429636819107E-002
          30  0.147366719306699     
          31 -4.424297006712135E-002
          32 -2.221641160661785E-002
          33  2.626425489436057E-002
          34  3.348324813441823E-002
          35  3.418421902518137E-002
          36  0.687677548547229     
          37  1.549828167774107E-002
          38  3.138191184197287E-003
          39 -4.667295772438312E-003
          40  8.971054576342852E-002
          41 -1.224794251311494E-002
          42  8.097497048933385E-006
          43  1.795753953698576E-003
          44  6.797921176991417E-004
          45 -1.158807058209365E-002
          46 -8.196212077510943E-004
          47 -1.328769857589965E-003
          48  3.698212335547240E-004
          49 -1.040364359955350E-002
          50 -5.504327278207795E-005
          51 -1.642455606457758E-004
          52  1.674555740672568E-003
          53 -3.709540018226258E-003
          54 -4.493827709591830E-004
          55 -2.668154591078610E-004
          56  1.627279823387033E-003
          57 -7.791954326263819E-003
          58 -1.559149451170341E-004
          59  1.131008812275260E-003
          60 -1.649551662941744E-003
          61 -7.638122256766782E-003
          62 -1.217147352037083E-003
          63 -3.701521437948031E-004
          64 -2.233966662851936E-003
          65 -2.840357463791467E-003
          66 -8.615877821618644E-004
          67 -1.974662287298238E-003
          68 -1.103485304211303E-003
          69 -1.831526299850654E-003
          70 -2.884719206270245E-003
Sym=     4a
Ene=   -1.62049018746486     
Spin= Alpha
Occup=     2.00000000
           1  1.547808464552840E-002
           2 -1.297786187730131E-004
           3  2.555679189421092E-002
           4  3.906372218437012E-003
           5 -1.616157288186684E-002
           6 -7.340113471066559E-002
           7 -2.490605981191192E-002
           8  6.139153799516675E-003
           9 -1.093853417481473E-002
          10 -1.585718006396949E-002
          11 -1.522999261025742E-002
          12 -0.337777477153605     
          13  6.334618574359610E-003
          14 -1.436300148384915E-003
          15  5.178796232855438E-003
          16 -4.535379820510060E-002
          17  8.290820186234239E-003
          18  3.813223994914006E-002
          19  1.076133130447244E-002
          20  6.560754935732070E-003
          21 -4.643033134946328E-003
          22  8.090193854365936E-003
          23  4.893317276602852E-003
          24  0.178065925527036     
          25 -2.618810530114027E-003
          26 -2.986359422571982E-003
          27  1.917880921937795E-003
          28  2.424747385449369E-002
          29 -6.627647798320897E-003
          30 -2.945727184801050E-002
          31  9.459451707802267E-003
          32  2.771760524408973E-003
          33 -5.655302487684453E-003
          34 -5.969465512809752E-003
          35 -5.188855832921989E-003
          36 -0.135080613755820     
          37 -3.389465873089684E-003
          38 -1.566428386587519E-003
          39  7.683651698139176E-004
          40 -1.729385466434675E-002
          41  0.296396634928239     
          42  2.004102491814674E-004
          43 -4.250202746796066E-002
          44 -1.605046978835141E-002
          45  0.279783606865561     
          46 -1.847248754060987E-003
          47  4.045300018961700E-002
          48 -2.336206979511199E-003
          49  0.250479256217768     
          50 -3.896013298712833E-003
          51  5.216042403915894E-003
          52 -4.004601421591273E-002
          53  9.045694828950053E-002
          54 -3.102842278439177E-003
          55  3.436820997095832E-003
          56 -3.163821005343427E-002
          57  0.183505619618894     
          58  4.741347735912725E-003
          59 -2.601614786248034E-002
          60  3.977636586183694E-002
          61  0.181356977180268     
          62  3.587399396505729E-003
          63  1.445931299156758E-002
          64  4.580399309254778E-002
          65  6.886095255271722E-002
          66  2.194220413300477E-002
          67  2.295761803712106E-002
          68  2.397585887940985E-002
          69  4.321635569785755E-002
          70  4.050674758442779E-002
Sym=     5a
Ene=   -1.17372023510173     
Spin= Alpha
Occup=     2.00000000
           1  4.551762171384544E-002
           2 -2.533827914153320E-003
           3  3.522832195713591E-002
           4 -4.688599217749833E-003
           5 -8.547362486517764E-005
           6 -5.401183564142348E-003
           7 -3.739912396749557E-003
           8 -4.226176528518561E-005
           9 -1.700281344830075E-003