[Molden Format]
[Title]
[Atoms] AU
Zn     1    30 -0.61099057249715E+00 -0.11818319888068E+00 -0.15634657430562E+00
H      2     1 -0.70198218284792E+01  0.23374598276055E+01 -0.13353618698319E+01
C      3     6 -0.55237876503715E+01  0.19302039022613E+01 -0.27057880778480E+01
H      4     1 -0.63111216130435E+01  0.14339639547667E+01 -0.45532386491111E+01
H      5     1 -0.42387754508564E+01  0.35382484893019E+01 -0.28849239161189E+01
O      6     8 -0.39901141745478E+01 -0.22314691408152E+00 -0.17891346098555E+01
H      7     1 -0.50426133543632E+01 -0.17272800987364E+01 -0.16935534219918E+01
H      8     1  0.30199693100877E+01  0.46111481115608E+01  0.33096501692722E+01
C      9     6  0.18861111146989E+01  0.49186322115822E+01  0.16062371586171E+01
H     10     1  0.11732362299886E+01  0.68582889389874E+01  0.15158070047553E+01
H     11     1  0.29723329461425E+01  0.44877326771523E+01 -0.97210698585325E-01
O     12     8 -0.30020306136919E+00  0.31736937195062E+01  0.16186217046626E+01
H     13     1 -0.14871572280621E+01  0.36858201965600E+01  0.29249063606795E+01
H     14     1 -0.10239764682978E+01 -0.69081081065268E+01  0.20873477141678E+01
C     15     6  0.52183934739121E+00 -0.56948418864717E+01  0.14395199192540E+01
H     16     1  0.23187639180054E+01 -0.62364537203598E+01  0.23105201017556E+01
H     17     1  0.67177982617826E+00 -0.57568345176635E+01 -0.62061819729518E+00
O     18     8 -0.50655068934086E-01 -0.30455755885869E+01  0.21230060310252E+01
H     19     1 -0.18967077720875E+00 -0.28954734059469E+01  0.39495257137593E+01
H     20     1  0.57846887575093E+01  0.46356240882534E+00 -0.36789856245703E+01
C     21     6  0.46785250067364E+01 -0.96970756296866E+00 -0.26772234333107E+01
H     22     1  0.49878095242979E+01 -0.28501365739704E+01 -0.34843166166031E+01
H     23     1  0.51475216250035E+01 -0.95886582701629E+00 -0.66454013473080E+00
O     24     8  0.19708233545560E+01 -0.31458376277290E+00 -0.28747646358107E+01
H     25     1  0.14774230605128E+01 -0.23296536341006E+00 -0.46437522910671E+01
[GTO]
           1 0
 s           5   1.000000    
   1.82046632240000       0.239486993461030     
   1.13274582070000      -0.435552212973591     
  0.315046004900000       8.877128481011664E-003
  0.148617277200000       0.165828864309417     
  5.129314220000000E-002  1.384605064791990E-002
 p           3   1.000000    
   1.22375302100000      -0.198165888501843     
  0.183640111800000       0.157995226977593     
  4.740596480000000E-002  5.426519616967269E-003
 
           2 0
 s           8   1.000000    
   337.005012218500       3.601689821855156E-002
   53.3105310515000       6.207427386660537E-002
   12.2082534814000       0.112099557673557     
   3.41882690980000       0.170856667962883     
   1.10879012580000       0.211748987522532     
  0.478717798300000       0.124955987753142     
  0.212137087700000       8.758499153193458E-002
  6.905810860000000E-002  4.653431212887886E-003
 
           3 0
 s           6   1.000000    
   2.20862762910000       -1.33056903065128     
   1.91795894900000        1.01981641118703     
  0.497153036800000       0.266902975497537     
  0.192182467300000       0.133985822788353     
  0.150531183200000      -6.619865529933536E-002
  7.818867730000000E-002  2.227371585967172E-002
 p           6   1.000000    
   24.5973356357000       0.516393844668359     
   6.48816086650000       0.739820430985008     
   2.22635867440000       0.657494108251150     
  0.776897003100000       0.442941934963450     
  0.283424721400000       0.120582163684692     
  9.862825729999999E-002  1.360805406078906E-002
 
           4 0
 s           8   1.000000    
   337.005012218500       3.608801369180954E-002
   53.3105310515000       6.213750689482555E-002
   12.2082534814000       0.112292346779783     
   3.41882690980000       0.171082886657531     
   1.10879012580000       0.212129088226376     
  0.478717798300000       0.125028328223142     
  0.212137087700000       8.763561659286594E-002
  6.905810860000000E-002  4.514359574424897E-003
 
           5 0
 s           8   1.000000    
   337.005012218500       3.591077150705715E-002
   53.3105310515000       6.197981778089573E-002
   12.2082534814000       0.111811811036521     
   3.41882690980000       0.170518905130508     
   1.10879012580000       0.211181698193436     
  0.478717798300000       0.124847761187301     
  0.212137087700000       8.750925235897163E-002
  6.905810860000000E-002  4.860738894885100E-003
 
           6 0
 s           6   1.000000    
   3.48359494310000       -1.32434379696246     
   2.85986576440000        1.12557043970031     
  0.740681029000000       0.298274944112094     
  0.344926919200000       8.216335676085976E-002
  0.261978532900000       3.984989707024170E-002
  9.461635039999999E-002  1.045613718464276E-002
 p           6   1.000000    
   37.6414713255000        1.51473193010877     
   9.71308856170000        1.83729841921471     
   3.13717714760000        1.34816533228207     
   1.12138051620000       0.649564694474094     
  0.398077926500000       0.185484823341420     
  0.123047771000000       1.551405729123064E-002
 
           7 0
 s           8   1.000000    
   337.005012218500       3.804838890191257E-002
   53.3105310515000       6.386050046981076E-002
   12.2082534814000       0.117597118475245     
   3.41882690980000       0.177281212731868     
   1.10879012580000       0.222594108295985     
  0.478717798300000       0.126963414897587     
  0.212137087700000       8.898972958978031E-002
  6.905810860000000E-002  6.304896478331487E-004
 
           8 0
 s           8   1.000000    
   337.005012218500       3.600533276317889E-002
   53.3105310515000       6.206398562129119E-002
   12.2082534814000       0.112068202263129     
   3.41882690980000       0.170819869373538     
   1.10879012580000       0.211687169020079     
  0.478717798300000       0.124944209246077     
  0.212137087700000       8.757674871557716E-002
  6.905810860000000E-002  4.676036568520416E-003
 
           9 0
 s           6   1.000000    
   2.20862762910000       -1.33054569173363     
   1.91795894900000        1.01979844040848     
  0.497153036800000       0.266898270111336     
  0.192182467300000       0.133983462750038     
  0.150531183200000      -6.619417912361165E-002
  7.818867730000000E-002  2.227332300228469E-002
 p           6   1.000000    
   24.5973356357000       0.516387418190314     
   6.48816086650000       0.739814585387704     
   2.22635867440000       0.657488680363784     
  0.776897003100000       0.442938579118773     
  0.283424721400000       0.120581253150425     
  9.862825729999999E-002  1.360892283219109E-002
 
          10 0
 s           8   1.000000    
   337.005012218500       3.605902275510259E-002
   53.3105310515000       6.211173532987110E-002
   12.2082534814000       0.112213757258906     
   3.41882690980000       0.170990677600135     
   1.10879012580000       0.211974140209515     
  0.478717798300000       0.124998855579680     
  0.212137087700000       8.761499117582414E-002
  6.905810860000000E-002  4.571068551597765E-003
 
          11 0
 s           8   1.000000    
   337.005012218500       3.582136561666185E-002
   53.3105310515000       6.190015807908701E-002
   12.2082534814000       0.111569359169227     
   3.41882690980000       0.170234198138243     
   1.10879012580000       0.210703733414728     
  0.478717798300000       0.124756334495918     
  0.212137087700000       8.744526968861886E-002
  6.905810860000000E-002  5.035170094440084E-003
 
          12 0
 s           6   1.000000    
   3.48359494310000       -1.32438995251822     
   2.85986576440000        1.12561410132700     
  0.740681029000000       0.298290178776823     
  0.344926919200000       8.216651120462796E-002
  0.261978532900000       3.985149647392979E-002
  9.461635039999999E-002  1.044828740772098E-002
 p           6   1.000000    
   37.6414713255000        1.51489369803865     
   9.71308856170000        1.83747228139637     
   3.13717714760000        1.34834621437115     
   1.12138051620000       0.649630263059973     
  0.398077926500000       0.185494278779549     
  0.123047771000000       1.549909743977874E-002
 
          13 0
 s           8   1.000000    
   337.005012218500       3.801379690787833E-002
   53.3105310515000       6.383044178089539E-002
   12.2082534814000       0.117503678412528     
   3.41882690980000       0.177172484972748     
   1.10879012580000       0.222409667420617     
  0.478717798300000       0.126930281845704     
  0.212137087700000       8.896654575783940E-002
  6.905810860000000E-002  6.998838485541947E-004
 
          14 0
 s           8   1.000000    
   337.005012218500       3.604024305516044E-002
   53.3105310515000       6.209503665008189E-002
   12.2082534814000       0.112162846545501     
   3.41882690980000       0.170930938295460     
   1.10879012580000       0.211873765415179     
  0.478717798300000       0.124979750852532     
  0.212137087700000       8.760162136842935E-002
  6.905810860000000E-002  4.607792354695246E-003
 
          15 0
 s           6   1.000000    
   2.20862762910000       -1.33032603963566     
   1.91795894900000        1.01962931007609     
  0.497153036800000       0.266853985801448     
  0.192182467300000       0.133961251465950     
  0.150531183200000      -6.615205253620730E-002
  7.818867730000000E-002  2.226962566111269E-002
 p           6   1.000000    
   24.5973356357000       0.516326928263054     
   6.48816086650000       0.739759561811027     
   2.22635867440000       0.657437588753757     
  0.776897003100000       0.442906991060028     
  0.283424721400000       0.120572682427135     
  9.862825729999999E-002  1.361709985106149E-002
 
          16 0
 s           8   1.000000    
   337.005012218500       3.598621908787224E-002
   53.3105310515000       6.204697984764154E-002
   12.2082534814000       0.112016381287960     
   3.41882690980000       0.170759048704723     
   1.10879012580000       0.211585002689840     
  0.478717798300000       0.124924734998854     
  0.212137087700000       8.756312026511154E-002
  6.905810860000000E-002  4.713388156923334E-003
 
          17 0
 s           8   1.000000    
   337.005012218500       3.581299979931132E-002
   53.3105310515000       6.189270022567679E-002
   12.2082534814000       0.111546670730382     
   3.41882690980000       0.170207550270328     
   1.10879012580000       0.210659007111134     
  0.478717798300000       0.124747767837109     
  0.212137087700000       8.743927450956197E-002
  6.905810860000000E-002  5.051481840920509E-003
 
          18 0
 s           6   1.000000    
   3.48359494310000       -1.32439096777980     
   2.85986576440000        1.12561506173462     
  0.740681029000000       0.298290513890568     
  0.344926919200000       8.216658059166108E-002
  0.261978532900000       3.985153165542459E-002
  9.461635039999999E-002  1.044811473291404E-002
 p           6   1.000000    
   37.6414713255000        1.51489725623238     
   9.71308856170000        1.83747610556506     
   3.13717714760000        1.34835019306986     
   1.12138051620000       0.649631705276984     
  0.398077926500000       0.185494486736833     
  0.123047771000000       1.549876835350757E-002
 
          19 0
 s           8   1.000000    
   337.005012218500       3.805630759610022E-002
   53.3105310515000       6.386737962834335E-002
   12.2082534814000       0.117618507631468     
   3.41882690980000       0.177306099016228     
   1.10879012580000       0.222636328797562     
  0.478717798300000       0.126970994368219     
  0.212137087700000       8.899503308201445E-002
  6.905810860000000E-002  6.145996773403400E-004
 
          20 0
 s           8   1.000000    
   337.005012218500       3.598119441715324E-002
   53.3105310515000       6.204250871365468E-002
   12.2082534814000       0.112002758119543     
   3.41882690980000       0.170743058835455     
   1.10879012580000       0.211558144461138     
  0.478717798300000       0.124919613788216     
  0.212137087700000       8.755953634126652E-002
  6.905810860000000E-002  4.723205785793134E-003
 
          21 0
 s           6   1.000000    
   2.20862762910000       -1.33028634659457     
   1.91795894900000        1.01959874675923     
  0.497153036800000       0.266845983242919     
  0.192182467300000       0.133957237694386     
  0.150531183200000      -6.614443999887790E-002
  7.818867730000000E-002  2.226895751953028E-002
 p           6   1.000000    
   24.5973356357000       0.516315995719973     
   6.48816086650000       0.739749616977759     
   2.22635867440000       0.657428354601355     
  0.776897003100000       0.442901281891456     
  0.283424721400000       0.120571133369760     
  9.862825729999999E-002  1.361857763588346E-002
 
          22 0
 s           8   1.000000    
   337.005012218500       3.591334616544587E-002
   53.3105310515000       6.198211061515169E-002
   12.2082534814000       0.111818792465400     
   3.41882690980000       0.170527101784301     
   1.10879012580000       0.211195461600448     
  0.478717798300000       0.124850390632781     
  0.212137087700000       8.751109250493060E-002
  6.905810860000000E-002  4.855712831149901E-003
 
          23 0
 s           8   1.000000    
   337.005012218500       3.579176486507640E-002
   53.3105310515000       6.187376690548526E-002
   12.2082534814000       0.111489079243472     
   3.41882690980000       0.170139904302719     
   1.10879012580000       0.210545476476106     
  0.478717798300000       0.124726014088352     
  0.212137087700000       8.742405063495594E-002
  6.905810860000000E-002  5.092878240200036E-003
 
          24 0
 s           6   1.000000    
   3.48359494310000       -1.32448352988211     
   2.85986576440000        1.12570262345021     
  0.740681029000000       0.298321067192858     
  0.344926919200000       8.217290670064509E-002
  0.261978532900000       3.985473920932131E-002
  9.461635039999999E-002  1.043237057827332E-002
 p           6   1.000000    
   37.6414713255000        1.51522163429011     
   9.71308856170000        1.83782472252130     
   3.13717714760000        1.34871291970922     
   1.12138051620000       0.649763181674397     
  0.398077926500000       0.185513441018117     
  0.123047771000000       1.546876142271856E-002
 
          25 0
 s           8   1.000000    
   337.005012218500       3.799093274593054E-002
   53.3105310515000       6.381056702261947E-002
   12.2082534814000       0.117441914277304     
   3.41882690980000       0.177100606487824     
   1.10879012580000       0.222287753655041     
  0.478717798300000       0.126908361537603     
  0.212137087700000       8.895120766367237E-002
  6.905810860000000E-002  7.457337224825437E-004
 
[MO]
Sym=     1a
Ene=   -1.67712759248689     
Spin= Alpha
Occup=     2.00000000
           1 -4.958506133632211E-002
           2 -1.839053991074766E-003
           3 -4.170710401613550E-004
           4  1.427608007129418E-003
           5 -1.846061873689346E-002
           6 -7.079685789464152E-002
           7 -1.303279126580866E-002
           8  2.065888396025174E-002
           9 -8.141204872295093E-003
          10 -1.784882299085391E-002
          11 -2.157211236350928E-002
          12 -0.370920057830326     
          13  9.587743310799061E-003
          14 -6.440881918797648E-003
          15  3.477976330868655E-003
          16 -4.993600154703206E-002
          17 -2.005102740142186E-002
          18 -7.759426526432282E-002
          19  2.289962238787686E-002
          20  1.670912247153925E-002
          21 -1.290579123114940E-003
          22 -1.935876566655102E-002
          23 -2.404233101238407E-002
          24 -0.403916221596435     
          25 -7.842495855716317E-003
          26 -9.562998811756261E-003
          27 -3.668193487062509E-003
          28 -5.434604902705582E-002
          29 -1.964316842561318E-002
          30 -7.843464003630342E-002
          31  6.113358540809540E-003
          32 -2.661172970423480E-002
          33 -8.479205234566391E-003
          34 -1.991214611662711E-002
          35 -2.361976425577980E-002
          36 -0.405671631595136     
          37 -2.137486991064537E-003
          38  1.258060412024815E-002
          39 -1.172386229890030E-003
          40 -5.445323972630642E-002
          41 -2.137637842297913E-002
          42 -8.649446946640428E-002
          43  3.041037407840324E-002
          44 -7.533296839841215E-003
          45  3.600652133052748E-003
          46 -2.187415090686965E-002
          47 -2.503005460005476E-002
          48 -0.443444173221869     
          49 -1.302362901497841E-002
          50  3.730301763404345E-003
          51  3.760474998909061E-003
          52 -5.957232504545321E-002
Sym=     2a
Ene=   -1.65319054592534     
Spin= Alpha
Occup=     2.00000000
           1  1.161080653070109E-003
           2 -8.348557429466370E-003
           3  1.818071496904171E-002
           4 -3.142909215718945E-003
           5  1.452371406555068E-002
           6  5.858399534119015E-002
           7  1.266669271045707E-002
           8 -1.778404135928393E-002
           9  7.502839052483097E-003
          10  1.356513950073153E-002
          11  1.678394126715396E-002
          12  0.282951355348553     
          13 -5.056201240944261E-003
          14  3.495473185916437E-003
          15 -1.579647357027971E-003
          16  3.526740024352874E-002
          17  2.276888699226998E-002
          18  0.103781484215473     
          19 -2.933261139129005E-002
          20 -2.584050975137165E-002
          21 -6.867675191821443E-004
          22  2.352789966167350E-002
          23  2.307122316925710E-002
          24  0.497047303833660     
          25  7.774269435582477E-003
          26  7.443705784261639E-003
          27  3.712558238089352E-003
          28  6.557043872146658E-002
          29 -2.755438858853335E-002
          30 -0.122946898325478     
          31  9.932678303764016E-003
          32 -4.485269282284871E-002
          33 -1.004204383557465E-002
          34 -2.811361494967927E-002
          35 -2.958326297141258E-002
          36 -0.585868672547307     
          37 -2.443418361104896E-003
          38  1.276087444179715E-002
          39 -7.042406011610439E-004
          40 -7.569671532459495E-002
          41 -7.026689045666067E-003
          42 -3.245229798669064E-002
          43  1.236708547890943E-002
          44 -4.373658725767730E-003
          45  8.736343243298045E-004
          46 -8.729999421257607E-003
          47 -9.595617039729634E-003
          48 -0.154078055328215     
          49 -3.466158237572531E-003
          50 -2.285124656058367E-004
          51  5.538367616893389E-004
          52 -1.902440326309332E-002
Sym=     3a
Ene=   -1.64878269210661     
Spin= Alpha
Occup=     2.00000000
           1 -2.675449301794672E-003
           2  1.285670303691513E-002
           3  3.962991219606292E-003
           4 -1.459715998988229E-002
           5 -1.194132140371274E-002
           6 -5.083519317102688E-002
           7 -1.143202047958387E-002
           8  1.419056943062483E-002
           9 -5.990522414665849E-003
          10 -1.105413793668713E-002
          11 -1.136501388252979E-002
          12 -0.242476273278601     
          13  4.398826620783504E-003
          14 -3.250305544489210E-003
          15  2.050118030097935E-003
          16 -3.295064277434769E-002
          17 -5.130136422629002E-003
          18 -2.596600286925475E-002
          19  5.825926106374862E-003
          20  6.376821259738850E-003
          21  1.508645355916975E-003
          22 -5.215133104659447E-003
          23 -3.734227041674043E-004
          24 -0.122505957901691     
          25 -1.820181010471812E-003
          26 -2.142947057657889E-003
          27 -9.492993154068961E-004
          28 -1.777552260255643E-002
          29 -1.906348408979669E-002
          30 -8.494712205829623E-002
          31  5.492927612763073E-003
          32 -3.048988383858793E-002
          33 -5.429650752061906E-003
          34 -1.794898079162760E-002
          35 -1.612033488301989E-002
          36 -0.400887175238730     
          37 -2.521317065163536E-003
          38  8.905592043180472E-003
          39 -8.098634204021370E-004
          40 -5.357252901860154E-002
          41  3.231281124943613E-002
          42  0.144743944728115     
          43 -5.339655436198832E-002
          44  1.231091165870817E-002
          45 -1.064587383298178E-003
          46  3.178285469458920E-002
          47  3.159360914215625E-002
          48  0.680436375584989     
          49  1.427376683974291E-002
          50 -4.712154852042096E-003
          51 -3.727986588959361E-003
          52  8.869086606306366E-002
Sym=     4a
Ene=   -1.64854717114604     
Spin= Alpha
Occup=     2.00000000
           1  1.274001794476632E-003
           2 -1.205615229591314E-002
           3 -7.973424768898219E-003
           4 -1.381996810713223E-002
           5  2.935155430493041E-002
           6  0.134521227515200     
           7  2.950925833221622E-002
           8 -3.709423974379947E-002
           9  1.740588403237608E-002
          10  3.018117111434900E-002
          11  2.856029905459136E-002
          12  0.642252025569185     
          13 -1.172241970526429E-002
          14  7.919377565395609E-003
          15 -3.440677047511636E-003
          16  8.450196392483657E-002
          17 -2.461948163408115E-002
          18 -0.108161578846721     
          19  3.158379599042916E-002
          20  2.659629024647113E-002
          21  1.187158758232757E-003
          22 -2.415031010121751E-002
          23 -2.474896999257548E-002
          24 -0.512791528988811     
          25 -6.916157428308626E-003
          26 -8.724729101153451E-003
          27 -2.837780612099954E-003
          28 -6.661834034958528E-002
          29 -5.814606847614374E-003
          30 -2.965471970912794E-002
          31  2.641628260731180E-003
          32 -1.052233385026264E-002
          33 -1.583082195564390E-003
          34 -6.596833717162322E-003
          35 -5.240463614136688E-003
          36 -0.138839619833433     
          37  1.713323056651972E-005
          38  3.104687169234292E-003
          39  3.541484746715920E-005
          40 -1.960152735915196E-002
          41  2.067050654079612E-003
          42  1.210172910936982E-002
          43 -3.882592403004117E-003
          44  1.531956379380404E-003
          45  8.464564222925443E-004
          46  2.471288685844236E-003
          47  7.104269450534792E-004
          48  5.582211225269918E-002
          49  1.308695968325262E-003
          50  1.992084904276998E-004
          51  4.208057207008298E-005
          52  9.679301093647143E-003
Sym=     5a
Ene=   -1.02701402132313     
Spin= Alpha
Occup=     2.00000000
           1 -6.006038785883934E-002
           2 -9.025602328489517E-003
           3  3.133584146844212E-003
           4 -7.044377293598664E-004
           5  3.228976886510740E-002
           6  0.117973592408925     
           7 -1.226627868083785E-003
           8  4.322514774284973E-003
           9 -1.317534055999581E-003
          10  3.213566853007536E-002
          11  3.154541270490500E-002
          12 -4.651626344547252E-002
          13 -2.391859167551278E-002
          14  4.101036930498380E-002
          15 -1.741039899351102E-002
          16 -1.395037791324569E-002
          17  7.607310517706664E-002
          18  0.261232146087153     
          19  1.586144797808808E-002
          20  9.074741621571680E-003
          21 -2.087711684471188E-003
          22  7.432492247923514E-002
          23  8.075980750244391E-002
          24 -0.132191775783169     
          25  9.260112795874509E-002
          26  6.060666741566912E-002
          27 -1.366006534190973E-002
          28 -3.918160971589894E-002
          29  0.103208085839324     
          30  0.360859168061429     
          31  5.989739999502927E-003
          32 -2.442511105072256E-002
          33 -1.213989191518916E-002
          34  0.105965374070164     
          35  0.111295421718964     
          36 -0.191288901419224     
          37  3.171576146453990E-002
          38 -0.138412559456913     
          39 -6.310092230163405E-002
          40 -5.588437190537855E-002
          41  0.109719444762495     
          42  0.376289421616841     
          43  2.940802485687777E-002
          44 -7.919893164935568E-003
          45  8.197025033220713E-003
          46  0.112554918012045     
          47  0.118021652259467     
          48 -0.208423805548773     
          49  0.152057552322504     
          50 -3.527340263098246E-002
          51  4.061517364876086E-002
          52 -5.882642695365427E-002
Sym=     6a
Ene=   -1.02296368005044     
Spin= Alpha
Occup=     2.00000000
           1  5.789131075619254E-004
           2  5.750331564283180E-003
           3  1.112384595624687E-002
           4 -2.587710192007128E-002
           5 -2.115266856286743E-002
           6 -7.286264299236569E-002
           7  1.569240766706310E-003
           8 -3.892270172497411E-003
           9  1.742953948857226E-003
          10 -2.003406910979256E-002
          11 -2.042784528498480E-002
          12  3.337012663969292E-002
          13  1.397364912910124E-002
          14 -2.476259142140362E-002
          15  9.959607732000763E-003
          16  1.080985155768144E-002
          17  1.048209947817319E-002
          18  4.369118654368265E-002
          19  1.703378707045289E-003
          20  4.108058338032303E-004
          21 -1.534013450630434E-004
          22  1.192705127584714E-002
          23  9.061239046931194E-003
          24 -1.693405452896922E-002
          25  1.711690857091368E-002
          26  1.028332154464273E-002
          27 -3.032602428728280E-003
          28 -7.506871838411817E-003
          29  0.123542581624979     
          30  0.428010278594974     
          31  7.634072087406767E-003
          32 -3.223067660141570E-002
          33 -1.384763937279491E-002
          34  0.121645453434793     
          35  0.128074911530466     
          36 -0.230919044218207     
          37  3.811670696395490E-002
          38 -0.165112523838217     
          39 -8.018133454424967E-002
          40 -6.846402383002408E-002
          41 -0.119232635291105     
          42 -0.414925272550245     
          43 -3.299131366277597E-002
          44  8.186393341792889E-003
          45 -7.613173225600058E-003
          46 -0.117564615810611     
          47 -0.124104256616302     
          48  0.222270559566472     
          49 -0.170150941371898     
          50  3.971905193642784E-002
          51 -4.696562433916283E-002
          52  6.602228113847237E-002
Sym=     7a
Ene=   -1.02202663774606     
Spin= Alpha
Occup=     2.00000000
           1 -5.748872440720663E-004
           2 -3.126058039921967E-003
           3 -2.501152302693001E-002
           4 -1.159255172659179E-002
           5 -5.616231548386128E-002
           6 -0.186656325651114     
           7  6.577417536111990E-003
           8 -1.478511057934088E-002
           9  4.910102473652554E-003
          10 -5.366808835091932E-002
          11 -5.842983970532380E-002
          12  0.108492996430254     
          13  2.930596268831530E-002
          14 -7.268421973355398E-002
          15  2.539193556905080E-002
          16  3.077020382761929E-002
          17  0.152600281190388     
          18  0.521189647666949     
          19  3.715809723844053E-002
          20  2.390729628729649E-002
          21 -4.692750931888708E-003
          22  0.149409649984266     
          23  0.157185634439557     
          24 -0.285604827165289     
          25  0.190967034031767     
          26  0.117423515398097     
          27 -3.468577881319031E-002
          28 -8.356547508120285E-002
          29 -5.619337713002665E-002
          30 -0.194716926558990     
          31 -3.600353832039169E-003
          32  1.583771817830359E-002
          33  6.925073773860466E-003
          34 -5.726257597726285E-002
          35 -5.990057767899730E-002
          36  0.109112216731260     
          37 -1.730694498336318E-002
          38  7.333670204277212E-002
          39  3.433394230636318E-002
          40  2.984792640636473E-002
          41 -3.141169750366677E-002
          42 -0.119749197449432     
          43 -8.261027960745146E-003
          44  2.683378198436507E-003
          45 -1.603423828861512E-003
          46 -3.609272211485649E-002
          47 -3.213778752217721E-002
          48  5.812940534836171E-002
          49 -4.899333130846951E-002
          50  1.230979021628323E-002
          51 -1.128007045845156E-002
          52  1.715174088262294E-002
Sym=     8a
Ene=   -1.01999431905120     
Spin= Alpha
Occup=     2.00000000
           1  2.282848436538147E-002
           2 -2.530680838995445E-002
           3  6.108457295973601E-003
           4 -4.363621923376198E-003
           5 -0.161254421218192     
           6 -0.552207339699649     
           7  2.050000111756960E-002
           8 -3.945082291334034E-002
           9  1.333573433197585E-002
          10 -0.158709182859578     
          11 -0.167236688094152     
          12  0.299870746288660     
          13  9.267651670005232E-002
          14 -0.206947309498982     
          15  7.587729756429763E-002
          16  8.717260795671385E-002
          17 -3.761327638469321E-002
          18 -0.128932618798423     
          19 -1.060775810909559E-002
          20 -5.980225433985289E-003
          21  1.558369818025140E-003
          22 -3.817789237091008E-002
          23 -3.912776672887339E-002
          24  7.594352768352054E-002
          25 -4.936976489387532E-002
          26 -2.918456520742994E-002
          27  1.065186480625603E-002
          28  1.958892829529434E-002