37
 energy: -2541.465481106600 gnorm: 0.000369776344 xtb: 6.7.1 (edcfbbe)
ZN           0.35839956096428        0.05013668702933       -0.35490450765645
H            2.52918813210928       -0.29160899209035        2.38973442790791
C            2.58603372171241       -0.96189566927651        1.53288949863900
H            3.58666925697958       -1.37958432525408        1.45066965222341
H            1.85611806027261       -1.76314201494028        1.63641708433377
O            2.25947565731304       -0.25738128877586        0.31245438109595
H            2.88632906003095        0.45820041968546        0.17471059595664
H            1.46786200127049        1.04753711863335       -4.01509048070841
C            1.74790783257293        0.82265264069070       -2.98878014320059
H            2.67557140945332        0.25058846824829       -2.97106385093380
H            1.86691763963530        1.75017487343924       -2.42934945656869
O            0.68303173573861        0.08511943469833       -2.35040467117247
H            0.44111356160276       -0.68057801353298       -2.87699875493683
N           -1.04008931877227        3.58517582819245        1.20076745519609
N           -0.29636393749081        1.84949759346933        0.12034830565842
C           -0.52486267785060        2.35847309278386        1.32131840540779
C           -0.24626511346501        1.70032922273435        2.61232178923010
C           -1.15155759732700        3.87360804335545       -0.13140592888042
C           -0.68876171328189        2.79005360496239       -0.79282171646259
H           -1.30105743222265        4.19565030218266        1.95826821694813
H           -0.05644014853827        0.63918456498928        2.45304659487110
H           -1.09239746935401        1.81243580474276        3.28741293517645
H            0.62299753964828        2.14935564768133        3.09305490390588
H           -1.54618400184056        4.80451377945588       -0.49277414713863
H           -0.62537005014246        2.62043086652017       -1.85088858946016
N           -1.61564452537613       -3.49000414090054        0.29825983102016
N           -0.76112609353804       -1.49608827192183        0.13346962880102
C           -0.55936657791710       -2.78252187303498       -0.11191635029959
C            0.63164348165086       -3.37334918392977       -0.75304463035859
C           -2.53467565213008       -2.62377926603275        0.82324118977443
C           -1.99523100312454       -1.38968866697251        0.71623258923571
H           -1.72300665795153       -4.48925909125113        0.22862621130144
H            1.40229589393856       -2.61351667135945       -0.87620491889892
H            0.37575515561178       -3.78509363430668       -1.72907423195346
H            1.02811343487189       -4.18658126454896       -0.14725064188399
H           -3.47740140866305       -2.94957773576588        1.22083065017902
H           -2.40965772638682       -0.44292417959834        1.00793728364965
