[Molden Format]
[Title]
[Atoms] AU
Zn     1    30  0.35172733173499E+00 -0.16129278872545E+01  0.88569590084473E-01
H      2     1 -0.58009993719301E+01 -0.38770380505915E+01 -0.34351388785493E+01
C      3     6 -0.44222518276196E+01 -0.23820800126758E+01 -0.31383701514462E+01
H      4     1 -0.40034418813233E+01 -0.14341868761232E+01 -0.49176980470709E+01
H      5     1 -0.51355680040785E+01 -0.10268653415718E+01 -0.17626833599449E+01
O      6     8 -0.21407566310109E+01 -0.34670256664459E+01 -0.20734957948296E+01
H      7     1 -0.14824670355165E+01 -0.47451340243295E+01 -0.31850659020541E+01
H      8     1 -0.37542861727019E+01 -0.35976624855906E+01  0.51717998265252E+01
C      9     6 -0.23235443837515E+01 -0.47276409573496E+01  0.42154647137543E+01
H     10     1 -0.16628966332202E+01 -0.62374368551893E+01  0.54430618106491E+01
H     11     1 -0.30841895988489E+01 -0.55126828027680E+01  0.24737082000848E+01
O     12     8 -0.19361973427830E+00 -0.31471843516509E+01  0.35029761550360E+01
H     13     1  0.61086852897278E+00 -0.24772078859649E+01  0.49870640320448E+01
H     14     1  0.68156076413312E+01 -0.27567063105134E+01 -0.33737408212429E+01
C     15     6  0.57780144997379E+01 -0.16330367279381E+01 -0.20015300780095E+01
H     16     1  0.70094106066914E+01 -0.10973010294323E+01 -0.44012544016359E+00
H     17     1  0.50059147727626E+01  0.46701661706305E-01 -0.29056899091130E+01
O     18     8  0.36445700448565E+01 -0.30856611018688E+01 -0.10798731081038E+01
H     19     1  0.42250884479144E+01 -0.46336329223515E+01 -0.32691865252717E+00
N     20     7  0.20283609859343E+00  0.61368156882060E+01  0.27549026725297E+00
N     21     7  0.22287625134448E+00  0.20661495956798E+01 -0.29622050779919E+00
C     22     6  0.27331787402761E+00  0.38952943354690E+01  0.14238306221039E+01
C     23     6  0.40988230049780E+00  0.35590605978367E+01  0.41888630195739E+01
C     24     6  0.10442825582148E+00  0.57498976482364E+01 -0.22770090257060E+01
C     25     6  0.11953379211181E+00  0.32201988268006E+01 -0.26140150433841E+01
H     26     1  0.21592374862997E+00  0.78346432624415E+01  0.11401764956910E+01
H     27     1  0.22305469931148E+01  0.27626393340508E+01  0.47366388783905E+01
H     28     1 -0.10902320811437E+01  0.23077868599525E+01  0.48408166882181E+01
H     29     1  0.19671139731592E+00  0.53745022894284E+01  0.51243978872337E+01
H     30     1  0.29532633215526E-01  0.72719280338675E+01 -0.36180779983233E+01
H     31     1  0.57464387733533E-01  0.21741804161786E+01 -0.43530100001268E+01
[GTO]
           1 0
 s           5   1.000000    
   1.82046632240000       0.240013703345731     
   1.13274582070000      -0.436498743074935     
  0.315046004900000       8.904358957219465E-003
  0.148617277200000       0.166189739774626     
  5.129314220000000E-002  1.368579542808280E-002
 p           3   1.000000    
   1.22375302100000      -0.199170931021919     
  0.183640111800000       0.158737006393037     
  4.740596480000000E-002  5.241401296275365E-003
 
           2 0
 s           8   1.000000    
   337.005012218500       3.602161256332308E-002
   53.3105310515000       6.207846721386507E-002
   12.2082534814000       0.112112338676119     
   3.41882690980000       0.170871667204644     
   1.10879012580000       0.211774185919744     
  0.478717798300000       0.124960787833422     
  0.212137087700000       8.758835071485381E-002
  6.905810860000000E-002  4.644215808593971E-003
 
           3 0
 s           6   1.000000    
   2.20862762910000       -1.33945709171136     
   1.91795894900000        1.02666016632411     
  0.497153036800000       0.268694913449240     
  0.192182467300000       0.134884588527021     
  0.150531183200000      -6.790408995035677E-002
  7.818867730000000E-002  2.242332658956746E-002
 p           6   1.000000    
   24.5973356357000       0.518829808722324     
   6.48816086650000       0.742034364462965     
   2.22635867440000       0.659550041733816     
  0.776897003100000       0.444212786845646     
  0.283424721400000       0.120926978515735     
  9.862825729999999E-002  1.327817480529454E-002
 
           4 0
 s           8   1.000000    
   337.005012218500       3.574398534592706E-002
   53.3105310515000       6.183115003365950E-002
   12.2082534814000       0.111359488170893     
   3.41882690980000       0.169987667827135     
   1.10879012580000       0.210290017343576     
  0.478717798300000       0.124677019942464     
  0.212137087700000       8.738976310384580E-002
  6.905810860000000E-002  5.185981736825716E-003
 
           5 0
 s           8   1.000000    
   337.005012218500       3.571918426035390E-002
   53.3105310515000       6.180901997144172E-002
   12.2082534814000       0.111292216649769     
   3.41882690980000       0.169908629468110     
   1.10879012580000       0.210157409642879     
  0.478717798300000       0.124651562599044     
  0.212137087700000       8.737194727286367E-002
  6.905810860000000E-002  5.234287385806028E-003
 
           6 0
 s           6   1.000000    
   3.48359494310000       -1.32462780333508     
   2.85986576440000        1.12583910567879     
  0.740681029000000       0.298368692562431     
  0.344926919200000       8.218276717302413E-002
  0.261978532900000       3.985973884505993E-002
  9.461635039999999E-002  1.040782566808702E-002
 p           6   1.000000    
   37.6414713255000        1.51572713298005     
   9.71308856170000        1.83836796121383     
   3.13717714760000        1.34927823386822     
   1.12138051620000       0.649968063985358     
  0.398077926500000       0.185542963382918     
  0.123047771000000       1.542197521330326E-002
 
           7 0
 s           8   1.000000    
   337.005012218500       3.810861275268106E-002
   53.3105310515000       6.391280163952388E-002
   12.2082534814000       0.117759780851883     
   3.41882690980000       0.177470448450111     
   1.10879012580000       0.222915196129748     
  0.478717798300000       0.127021009700187     
  0.212137087700000       8.903002962934509E-002
  6.905810860000000E-002  5.096002500946696E-004
 
           8 0
 s           8   1.000000    
   337.005012218500       3.588695756026946E-002
   53.3105310515000       6.195860744930201E-002
   12.2082534814000       0.111747235794127     
   3.41882690980000       0.170443085548742     
   1.10879012580000       0.211054393491911     
  0.478717798300000       0.124823431447861     
  0.212137087700000       8.749222583787482E-002
  6.905810860000000E-002  4.907219084841477E-003
 
           9 0
 s           6   1.000000    
   2.20862762910000       -1.34046069629223     
   1.91795894900000        1.02743293847014     
  0.497153036800000       0.268897252683239     
  0.192182467300000       0.134986073882614     
  0.150531183200000      -6.809676022205061E-002
  7.818867730000000E-002  2.244022010429031E-002
 p           6   1.000000    
   24.5973356357000       0.519103444662529     
   6.48816086650000       0.742282828408042     
   2.22635867440000       0.659780798962845     
  0.776897003100000       0.444355395622894     
  0.283424721400000       0.120965671606152     
  9.862825729999999E-002  1.324104759504139E-002
 
          10 0
 s           8   1.000000    
   337.005012218500       3.606680422354552E-002
   53.3105310515000       6.211865349872216E-002
   12.2082534814000       0.112234851893684     
   3.41882690980000       0.171015428991865     
   1.10879012580000       0.212015730386966     
  0.478717798300000       0.125006768733345     
  0.212137087700000       8.762052892832906E-002
  6.905810860000000E-002  4.555849305329072E-003
 
          11 0
 s           8   1.000000    
   337.005012218500       3.576443521790861E-002
   53.3105310515000       6.184939299136602E-002
   12.2082534814000       0.111414955105952     
   3.41882690980000       0.170052830899626     
   1.10879012580000       0.210399356868474     
  0.478717798300000       0.124697997688252     
  0.212137087700000       8.740444395417113E-002
  6.905810860000000E-002  5.146139784786377E-003
 
          12 0
 s           6   1.000000    
   3.48359494310000       -1.32451120100553     
   2.85986576440000        1.12572879998907     
  0.740681029000000       0.298330201285994     
  0.344926919200000       8.217479788657372E-002
  0.261978532900000       3.985569810910625E-002
  9.461635039999999E-002  1.042766342819365E-002
 p           6   1.000000    
   37.6414713255000        1.51531859641369     
   9.71308856170000        1.83792892685252     
   3.13717714760000        1.34882135017860     
   1.12138051620000       0.649802481661474     
  0.398077926500000       0.185519105287930     
  0.123047771000000       1.545978945291938E-002
 
          13 0
 s           8   1.000000    
   337.005012218500       3.803266652439397E-002
   53.3105310515000       6.384684009375825E-002
   12.2082534814000       0.117554649869415     
   3.41882690980000       0.177231797917544     
   1.10879012580000       0.222510279239318     
  0.478717798300000       0.126948360245381     
  0.212137087700000       8.897919556857331E-002
  6.905810860000000E-002  6.620338766478016E-004
 
          14 0
 s           8   1.000000    
   337.005012218500       3.606543468848081E-002
   53.3105310515000       6.211743594726789E-002
   12.2082534814000       0.112231139267945     
   3.41882690980000       0.171011072838702     
   1.10879012580000       0.212008410561510     
  0.478717798300000       0.125005376148876     
  0.212137087700000       8.761955437546753E-002
  6.905810860000000E-002  4.558527994150063E-003
 
          15 0
 s           6   1.000000    
   2.20862762910000       -1.34009990604915     
   1.91795894900000        1.02715513114057     
  0.497153036800000       0.268824512841742     
  0.192182467300000       0.134949590457025     
  0.150531183200000      -6.802749401081894E-002
  7.818867730000000E-002  2.243414697855702E-002
 p           6   1.000000    
   24.5973356357000       0.519005107191583     
   6.48816086650000       0.742193542467652     
   2.22635867440000       0.659697875372446     
  0.776897003100000       0.444304149280782     
  0.283424721400000       0.120951767285195     
  9.862825729999999E-002  1.325439178915144E-002
 
          16 0
 s           8   1.000000    
   337.005012218500       3.586732165969651E-002
   53.3105310515000       6.194111419490723E-002
   12.2082534814000       0.111693987967743     
   3.41882690980000       0.170380560336213     
   1.10879012580000       0.210949421133266     
  0.478717798300000       0.124803357971880     
  0.212137087700000       8.747817793036727E-002
  6.905810860000000E-002  4.945534104615777E-003
 
          17 0
 s           8   1.000000    
   337.005012218500       3.564398274372886E-002
   53.3105310515000       6.174188091762570E-002
   12.2082534814000       0.111088219250297     
   3.41882690980000       0.169668901907911     
   1.10879012580000       0.209755294938686     
  0.478717798300000       0.124574263679205     
  0.212137087700000       8.731785094677828E-002
  6.905810860000000E-002  5.380667721242776E-003
 
          18 0
 s           6   1.000000    
   3.48359494310000       -1.32452915162997     
   2.85986576440000        1.12574578112169     
  0.740681029000000       0.298336126764179     
  0.344926919200000       8.217602472821042E-002
  0.261978532900000       3.985632016318977E-002
  9.461635039999999E-002  1.042460971716986E-002
 p           6   1.000000    
   37.6414713255000        1.51538149466602     
   9.71308856170000        1.83799652225360     
   3.13717714760000        1.34889168912506     
   1.12138051620000       0.649827974991941     
  0.398077926500000       0.185522779270517     
  0.123047771000000       1.545396884789073E-002
 
          19 0
 s           8   1.000000    
   337.005012218500       3.817940599592919E-002
   53.3105310515000       6.397423242818708E-002
   12.2082534814000       0.117950967025919     
   3.41882690980000       0.177692802972309     
   1.10879012580000       0.223292603855473     
  0.478717798300000       0.127088567509514     
  0.212137087700000       8.907730070790637E-002
  6.905810860000000E-002  3.673712865088355E-004
 
          20 0
 s           6   1.000000    
   2.69507309610000       -1.15602221482266     
   2.24947021280000       0.954543651013890     
  0.611851695800000       0.240272892266017     
  0.303726665600000       9.179504886968128E-002
  0.171628270400000       3.195040243283756E-002
  7.154913430000000E-002  7.094351111537073E-003
 p           6   1.000000    
   27.5476401720000       0.977716832595809     
   7.12656627820000        1.23206107866295     
   2.35805520400000       0.943701546310374     
  0.845047262300000       0.490638409322270     
  0.301063057900000       0.126741834879708     
  9.457452580000000E-002  8.665397488643043E-003
 
          21 0
 s           6   1.000000    
   2.69507309610000       -1.14483505246793     
   2.24947021280000       0.945171325478526     
  0.611851695800000       0.237905799429393     
  0.303726665600000       9.089303395873090E-002
  0.171628270400000       3.162904923569038E-002
  7.154913430000000E-002  8.453395454531023E-003
 p           6   1.000000    
   27.5476401720000       0.957469302020139     
   7.12656627820000        1.21606578706272     
   2.35805520400000       0.925162799310356     
  0.845047262300000       0.483556168999610     
  0.301063057900000       0.125343017250536     
  9.457452580000000E-002  1.050497619989060E-002
 
          22 0
 s           6   1.000000    
   2.20862762910000       -1.43921256782007     
   1.91795894900000        1.10347404378342     
  0.497153036800000       0.288807582876494     
  0.192182467300000       0.144972245510665     
  0.150531183200000      -8.715514321853864E-002
  7.818867730000000E-002  2.410255988904639E-002
 p           6   1.000000    
   24.5973356357000       0.544678779695551     
   6.48816086650000       0.765292234446631     
   2.22635867440000       0.681173744811580     
  0.776897003100000       0.457547499039906     
  0.283424721400000       0.124544681092436     
  9.862825729999999E-002  9.705105463622606E-003
 
          23 0
 s           6   1.000000    
   2.20862762910000       -1.31691313855736     
   1.91795894900000        1.00930153053622     
  0.497153036800000       0.264149808580563     
  0.192182467300000       0.132604940418793     
  0.150531183200000      -6.358144377503996E-002
  7.818867730000000E-002  2.204385130869675E-002
 p           6   1.000000    
   24.5973356357000       0.512606572967175     
   6.48816086650000       0.736371072895998     
   2.22635867440000       0.654291712903488     
  0.776897003100000       0.440961427251927     
  0.283424721400000       0.120044790169935     
  9.862825729999999E-002  1.411867824955661E-002
 
          24 0
 s           6   1.000000    
   2.20862762910000       -1.36979198332880     
   1.91795894900000        1.05001815389946     
  0.497153036800000       0.274810871136743     
  0.192182467300000       0.137952105389804     
  0.150531183200000      -7.373668531717592E-002
  7.818867730000000E-002  2.293395479427116E-002
 p           6   1.000000    
   24.5973356357000       0.526975215315583     
   6.48816086650000       0.749410241777231     
   2.22635867440000       0.666402489206105     
  0.776897003100000       0.448444890391386     
  0.283424721400000       0.122075217016925     
  9.862825729999999E-002  1.216675082128864E-002
 
          25 0
 s           6   1.000000    
   2.20862762910000       -1.36899630168852     
   1.91795894900000        1.04940546994069     
  0.497153036800000       0.274650448381574     
  0.192182467300000       0.137871643976055     
  0.150531183200000      -7.358345929662972E-002
  7.818867730000000E-002  2.292056090460256E-002
 p           6   1.000000    
   24.5973356357000       0.526764837414198     
   6.48816086650000       0.749220270664140     
   2.22635867440000       0.666225941172908     
  0.776897003100000       0.448335925498159     
  0.283424721400000       0.122045653860219     
  9.862825729999999E-002  1.219562061291461E-002
 
          26 0
 s           8   1.000000    
   337.005012218500       3.800383097386045E-002
   53.3105310515000       6.382177953619313E-002
   12.2082534814000       0.117476757250574     
   3.41882690980000       0.177141156158404     
   1.10879012580000       0.222356528601060     
  0.478717798300000       0.126920729315385     
  0.212137087700000       8.895986165760654E-002
  6.905810860000000E-002  7.198703982535125E-004
 
          27 0
 s           8   1.000000    
   337.005012218500       3.548982166049648E-002
   53.3105310515000       6.160407618976130E-002
   12.2082534814000       0.110669947560031     
   3.41882690980000       0.169177145669612     
   1.10879012580000       0.208930860809731     
  0.478717798300000       0.124415298988938     
  0.212137087700000       8.720660144558204E-002
  6.905810860000000E-002  5.680314983659601E-003
 
          28 0
 s           8   1.000000    
   337.005012218500       3.544308968020859E-002
   53.3105310515000       6.156225704745714E-002
   12.2082534814000       0.110543131954121     
   3.41882690980000       0.169027990982557     
   1.10879012580000       0.208680914977955     
  0.478717798300000       0.124366977467467     
  0.212137087700000       8.717278401099289E-002
  6.905810860000000E-002  5.771035852051956E-003
 
          29 0
 s           8   1.000000    
   337.005012218500       3.569420646527570E-002
   53.3105310515000       6.178672617983080E-002
   12.2082534814000       0.111224462902368     
   3.41882690980000       0.169829016620576     
   1.10879012580000       0.210023853227551     
  0.478717798300000       0.124625906085343     
  0.212137087700000       8.735399202871778E-002
  6.905810860000000E-002  5.282922095543899E-003
 
          30 0
 s           8   1.000000    
   337.005012218500       3.619746571231282E-002
   53.3105310515000       6.223472976013091E-002
   12.2082534814000       0.112589016690879     
   3.41882690980000       0.171430871510027     
   1.10879012580000       0.212714029144136     
  0.478717798300000       0.125139379088993     
  0.212137087700000       8.771333138094638E-002
  6.905810860000000E-002  4.300074352770643E-003
 
          31 0
 s           8   1.000000    
   337.005012218500       3.594446620572428E-002
   53.3105310515000       6.200981909164067E-002
   12.2082534814000       0.111903174914331     
   3.41882690980000       0.170626165570852     
   1.10879012580000       0.211361817380970     
  0.478717798300000       0.124882157781574     
  0.212137087700000       8.753332385705161E-002
  6.905810860000000E-002  4.794949674031546E-003
 
[MO]
Sym=     1a
Ene=   -1.66611671442574     
Spin= Alpha
Occup=     2.00000000
           1  4.561016518017348E-002
           2 -6.699585674320376E-004
           3 -7.978829817526195E-004
           4 -1.482626129359590E-003
           5  2.319669024531015E-002
           6  9.610092975875922E-002
           7  2.867469170067755E-002
           8 -1.423509252615669E-002
           9  1.309935399561643E-002
          10  2.382843626018294E-002
          11  2.520854484625246E-002
          12  0.474341607809561     
          13 -9.676824316085325E-003
          14  3.068871573392710E-003
          15 -9.378721273610722E-003
          16  6.538830144663918E-002
          17  2.298886760322091E-002
          18  8.927782653943232E-002
          19  2.622423744733057E-002
          20  1.924073671173195E-002
          21 -7.450248008167576E-003
          22  2.246993224165465E-002
          23  2.956939147776613E-002
          24  0.445492059670995     
          25 -9.634273669018976E-003
          26 -6.396793625832585E-003
          27  6.897300684998000E-003
          28  6.017620343590459E-002
          29  2.031728734727080E-002
          30  8.355538828068552E-002
          31 -2.286193128476672E-002
          32 -1.671159684869778E-002
          33  9.927141306241349E-003
          34  2.088897349198637E-002
          35  2.273891163544808E-002
          36  0.415705468909660     
          37  1.174634883548288E-002
          38  3.426140670487832E-003
          39 -1.547132076049898E-003
          40  5.780174081208372E-002
          41  9.397930822451803E-002
          42 -7.115783451641590E-005
          43 -1.437362510036461E-002
          44 -5.301889707218853E-003
          45  9.892410653876073E-002
          46 -1.991793922175447E-004
          47  1.742913569924421E-002
          48 -1.650510506640932E-003
          49  8.216585340727081E-002
          50 -4.803289861162013E-004
          51  1.800338612365675E-003
          52 -1.262837416267830E-002
          53  2.755989022974920E-002
          54 -3.100121738415077E-004
          55  3.839728627806417E-003
          56 -1.065149558769240E-002
          57  5.878456450944369E-002
          58  6.002531824381919E-004
          59 -8.805276927140148E-003
          60  1.271149974641994E-002
          61  5.926887258673090E-002
          62  4.735385206162016E-004
          63  7.464336703889544E-003
          64  1.640435277990808E-002
          65  2.169622601462386E-002
          66  1.004713393198132E-002
          67  1.172411241375778E-002
          68  8.252747241054353E-003
          69  1.411785725903070E-002
          70  1.826795703553039E-002
Sym=     2a
Ene=   -1.64047244157584     
Spin= Alpha
Occup=     2.00000000
           1  1.222811186127953E-002
           2  4.202697462246101E-003
           3  2.559512480515977E-002
           4 -8.524309684754955E-003
           5 -7.747950588201274E-003
           6 -3.393752085813334E-002
           7 -1.122796402904202E-002
           8  3.309750806330661E-003
           9 -4.891113575314035E-003
          10 -6.668122345081558E-003
          11 -7.353612950508098E-003
          12 -0.157507949873600     
          13  2.676845376406263E-003
          14 -2.006063651744225E-003
          15  3.722376110606773E-003
          16 -2.007381616250172E-002
          17 -1.877480872163726E-002
          18 -8.189253953241474E-002
          19 -2.365401470725855E-002
          20 -1.879455033328009E-002
          21  8.846257416302499E-003
          22 -1.866931346957404E-002
          23 -2.098026847987327E-002
          24 -0.377042066051046     
          25  7.091682616804373E-003
          26  2.193408471732198E-003
          27 -5.974014900666230E-003
          28 -4.975732462337243E-002
          29  8.578622033762579E-003
          30  3.635052181587381E-002
          31 -1.044519921135694E-002
          32 -8.690396993061981E-003
          33  4.831345228622909E-003
          34  8.860649769431682E-003
          35  1.171720502279275E-002
          36  0.168346970944451     
          37  3.702678981859543E-003
          38  5.717355492312386E-004
          39 -9.170111877086948E-005
          40  2.051483977508128E-002
          41  0.280478855729764     
          42 -1.140698919859617E-004
          43 -4.088525209086299E-002
          44 -1.596245569772706E-002
          45  0.269614973866562     
          46 -6.722922669919657E-004
          47  3.834782335964682E-002
          48 -2.960703693237342E-003
          49  0.240620693052061     
          50 -1.542227697420892E-003
          51  5.176990097254333E-003
          52 -3.863651440171988E-002
          53  8.829266459973845E-002
          54 -1.680247657288021E-003
          55  2.056952996403637E-003
          56 -2.975248192150606E-002
          57  0.176759243178883     
          58  1.866679647385754E-003
          59 -2.526348893093937E-002
          60  3.804995123984597E-002
          61  0.176714285061510     
          62  1.397227210616863E-003
          63  1.363448341855792E-002
          64  4.520730111450016E-002
          65  6.556537159209273E-002
          66  1.927997162932211E-002
          67  1.825301869663375E-002
          68  2.331228910775223E-002
          69  4.190692366520908E-002
          70  4.152779358155920E-002
Sym=     3a
Ene=   -1.63778651009937     
Spin= Alpha
Occup=     2.00000000
           1 -4.617610059838888E-003
           2  1.172543334681738E-002
           3 -1.312062296326400E-002
           4 -8.478344538121680E-003
           5 -3.137051528559703E-003
           6 -1.221734531730766E-002
           7 -4.386505110088999E-003
           8  2.334423646046959E-003
           9 -1.206083422984834E-003
          10 -3.040282365008226E-003
          11 -4.317969449585993E-003
          12 -5.629172596626323E-002
          13  8.293519274986644E-004
          14 -3.892904233146691E-004
          15  1.335738344479478E-003
          16 -3.968940383540678E-003
          17 -1.786694860344646E-002
          18 -7.696106252566787E-002
          19 -2.247077603946120E-002
          20 -1.637819539658470E-002
          21  8.705144973688111E-003
          22 -1.719616518878167E-002
          23 -1.849203702099528E-002
          24 -0.352893552542524     
          25  5.965594425021259E-003
          26  4.268524239713301E-003
          27 -4.569553816785492E-003
          28 -4.671281356358581E-002
          29  3.210385735987473E-002
          30  0.143033227785463     
          31 -4.320678241900917E-002
          32 -2.593823115811139E-002
          33  1.846815091378198E-002
          34  3.200963291322940E-002
          35  3.212835306459477E-002
          36  0.655097724281459     
          37  1.589616431213194E-002
          38  5.233650461415827E-003
          39 -1.141294545745296E-003
          40  8.532560343710539E-002
          41 -0.146007902985597     
          42  2.637022603805074E-005
          43  2.124911915201855E-002
          44  8.135011471550057E-003
          45 -0.137114497048960     
          46 -2.595994261086819E-004
          47 -1.995305920328786E-002
          48  1.089408462656414E-003
          49 -0.125296076173465     
          50  5.992009176804430E-004
          51 -2.524209983676348E-003
          52  1.951923291239163E-002
          53 -4.551426721870970E-002
          54  5.210183127195441E-005
          55 -2.335413024088268E-003
          56  1.661564456048090E-002
          57 -9.153667484247015E-002
          58 -9.763130562803671E-004
          59  1.307148066145215E-002
          60 -1.981263790511337E-002
          61 -9.073540128101941E-002
          62 -1.553952298413063E-003
          63 -6.633805650881368E-003
          64 -2.254313737493940E-002
          65 -3.411762856330140E-002
          66 -1.219856777787998E-002
          67 -1.424644447251848E-002
          68 -1.283061396039081E-002
          69 -2.157807197259552E-002
          70 -1.993568318519898E-002
Sym=     4a
Ene=   -1.63686080665296     
Spin= Alpha
Occup=     2.00000000
           1  2.685072228448733E-003
           2  1.081549196006061E-002
           3  2.559930593601673E-003
           4  1.196305557101333E-002
           5 -3.197374586686499E-002
           6 -0.143190727056392     
           7 -4.520248909309234E-002
           8  1.952709049885431E-002
           9 -2.256562551203748E-002
          10 -3.254970537015518E-002
          11 -3.254156967717354E-002
          12 -0.652221066757843     
          13  1.090023276065728E-002
          14 -3.926640643491613E-003
          15  1.159889544763507E-002
          16 -8.493308411594690E-002
          17  2.133925360598780E-002
          18  0.100612682204663     
          19  2.703666637060249E-002
          20  2.065775215155024E-002
          21 -1.191067302763282E-002
          22  2.170906651216032E-002
          23  1.480428700170397E-002
          24  0.462382110157281     
          25 -7.899684654967020E-003
          26 -3.810418586920864E-003
          27  6.691816162095350E-003
          28  6.309332566473437E-002
          29  1.058345319075653E-002
          30  4.807270838840384E-002
          31 -1.455331696791410E-002
          32 -9.093954414634665E-003
          33  5.620805995299239E-003
          34  1.136602163544016E-002
          35  1.092959655262412E-002
          36  0.219035408498834     
          37  5.434500796902620E-003
          38  1.441200814218882E-003
          39 -7.029902398503461E-004
          40  3.014766082240534E-002
          41  2.042849584478112E-002
          42 -3.192161332166214E-005
          43 -2.969760810822081E-003
          44 -9.565985335622393E-004
          45  1.784662421658148E-002
          46 -5.543435925129390E-004
          47  3.189610482304413E-003
          48  6.007843621634090E-004
          49  1.801685208162927E-002
          50 -1.693437918938041E-004
          51 -2.145521813902181E-005
          52 -2.267168073081951E-003
          53  5.837696287358265E-003
          54 -8.611213049600898E-005
          55  1.613841858487656E-003
          56 -3.164895442625365E-003
          57  1.215621460404376E-002
          58  1.447973091230914E-004
          59 -1.757914748595984E-003
          60  2.764487429758438E-003
          61  1.185493567563522E-002
          62 -6.122289994978183E-004
          63  7.881994775647149E-004
          64  2.029970806767022E-003
          65  4.755824493184882E-003
          66  4.189589444864248E-003
          67  5.634533711298925E-003
          68  2.341537016570454E-003
          69  2.786749717436129E-003
          70  1.656477507270702E-004
Sym=     5a
Ene=   -1.18098444392401     
Spin= Alpha
Occup=     2.00000000
           1 -4.436261714586950E-002
           2  1.728996219183068E-003
           3 -3.528751575854248E-002
           4  3.834391530460409E-003
           5 -5.299172530968004E-004
           6  3.328500153854362E-003
           7  3.178589968199476E-003
           8 -7.438914770038596E-004
           9  1.562934304207765E-003