[Molden Format]
[Title]
[Atoms] AU
H      1     1 -0.21110543645124E+01 -0.14546314154927E+01  0.12988001883619E+01
C      2     6 -0.13338273178414E+01 -0.29271364263208E-01 -0.98665995467825E-02
H      3     1 -0.21110425159304E+01 -0.36725076627723E+00 -0.19151500804598E+01
H      4     1 -0.19560415210163E+01  0.18433259608301E+01  0.62362809616098E+00
O      5     8  0.13641419431321E+01  0.66431049522844E-02  0.22842440854681E-02
H      6     1  0.19582944901366E+01 -0.16334294841401E+01 -0.55338512916473E+00
[GTO]
           1 0
 s           8   1.000000    
   337.005012218500       3.412175863349878E-002
   53.3105310515000       6.037124477154654E-002
   12.2082534814000       0.106953329623476     
   3.41882690980000       0.164794601944651     
   1.10879012580000       0.201608279223567     
  0.478717798300000       0.122975455530635     
  0.212137087700000       8.619889937934931E-002
  6.905810860000000E-002  8.314673201970380E-003
 
           2 0
 s           6   1.000000    
   2.20862762910000       -1.31674364069374     
   1.91795894900000        1.00917101970161     
  0.497153036800000       0.264115636252118     
  0.192182467300000       0.132587800881942     
  0.150531183200000      -6.354898206948510E-002
  7.818867730000000E-002  2.204099822943162E-002
 p           6   1.000000    
   24.5973356357000       0.512559222511981     
   6.48816086650000       0.736327891508848     
   2.22635867440000       0.654251629230345     
  0.776897003100000       0.440936630168930     
  0.283424721400000       0.120038061865582     
  9.862825729999999E-002  1.412504513701645E-002
 
           3 0
 s           8   1.000000    
   337.005012218500       3.412142012333122E-002
   53.3105310515000       6.037093755353354E-002
   12.2082534814000       0.106952408948767     
   3.41882690980000       0.164793513475509     
   1.10879012580000       0.201606465952670     
  0.478717798300000       0.122975092883712     
  0.212137087700000       8.619864556426440E-002
  6.905810860000000E-002  8.315319620700569E-003
 
           4 0
 s           8   1.000000    
   337.005012218500       3.450346886446764E-002
   53.3105310515000       6.071699384713196E-002
   12.2082534814000       0.107991174110228     
   3.41882690980000       0.166020714176004     
   1.10879012580000       0.203652523874448     
  0.478717798300000       0.123382397287568     
  0.212137087700000       8.648371327425097E-002
  6.905810860000000E-002  7.584071609167713E-003
 
           5 0
 s           6   1.000000    
   3.48359494310000       -1.31897361739668     
   2.85986576440000        1.12049271380751     
  0.740681029000000       0.296504892486005     
  0.344926919200000       8.179648855226825E-002
  0.261978532900000       3.966391569499969E-002
  9.461635039999999E-002  1.136522005008266E-002
 p           6   1.000000    
   37.6414713255000        1.49583028706678     
   9.71308856170000        1.81695593056030     
   3.13717714760000        1.32707604179148     
   1.12138051620000       0.641898673770134     
  0.398077926500000       0.184367179760658     
  0.123047771000000       1.724143718518395E-002
 
           6 0
 s           8   1.000000    
   337.005012218500       3.728938207341314E-002
   53.3105310515000       6.319807491549990E-002
   12.2082534814000       0.115545496218353     
   3.41882690980000       0.174890133954904     
   1.10879012580000       0.218545314706586     
  0.478717798300000       0.126227934218063     
  0.212137087700000       8.847508549637231E-002
  6.905810860000000E-002  2.145901478124309E-003
 
[MO]
Sym=     1a
Ene=   -1.34568915295438     
Spin= Alpha
Occup=     2.00000000
           1 -4.466415648915420E-002
           2 -0.194552216295693     
           3 -7.261520184963051E-002
           4 -1.406558932872122E-003
           5 -4.760803781968767E-004
           6 -4.466520560254487E-002
           7 -4.497024821266861E-002
           8 -0.812241668618524     
           9  2.380227858014052E-002
          10  1.137260312178551E-002
          11  3.862520704164148E-003
          12 -0.112460060825618     
Sym=     2a
Ene=  -0.729447058372137     
Spin= Alpha
Occup=     2.00000000
           1  0.191118147025421     
           2  0.585850395103781     
           3 -9.931234744051742E-002
           4 -5.684138169047791E-004
           5 -1.888797254298956E-004
           6  0.191115015949893     
           7  0.181348890411072     
           8 -0.368010168559292     
           9 -0.195214834320052     
          10  4.206987027654507E-002
          11  1.427894814791954E-002
          12 -9.614064526284584E-002
Sym=     3a
Ene=  -0.513670133131175     
Spin= Alpha
Occup=     2.00000000
           1  0.139641030470732     
           2  3.276067219193370E-002
           3 -0.261536952907083     
           4 -0.240791880157826     
           5 -8.211346451637987E-002
           6  0.140159367229146     
           7 -4.849833348927478E-002
           8 -0.150241943541662     
           9  0.317033192241168     
          10 -0.508274641363345     
          11 -0.172999339852012     
          12  0.323012866990487     
Sym=     4a
Ene=  -0.466910392807939     
Spin= Alpha
Occup=     2.00000000
           1 -5.013901999889907E-002
           2  2.193280648125395E-002
           3  0.411216967431426     
           4 -0.240424885382300     
           5 -9.643072962463971E-002
           6 -3.585525512758641E-002
           7 -0.242340135810086     
           8 -0.189560234022715     
           9 -0.615394437637643     
          10 -0.311575012082056     
          11 -0.123001468509493     
          12  5.974941227889305E-003
Sym=     5a
Ene=  -0.466018765144055     
Spin= Alpha
Occup=     2.00000000
           1  0.245665180871451     
           2  6.573750943554700E-004
           3  1.156042291879484E-002
           4 -0.165165951027163     
           5  0.463164877655495     
           6 -0.247636582835914     
           7 -7.248699110511683E-003
           8 -5.498301811318161E-003
           9 -1.734870287186345E-002
          10 -0.193023935911580     
          11  0.537706359352372     
          12  3.371749090504270E-004
Sym=     6a
Ene=  -0.384295182662910     
Spin= Alpha
Occup=     2.00000000
           1 -0.225149568948877     
           2  2.364007158931606E-002
           3  6.884932914290236E-002
           4  0.473477880806526     
           5  0.160013990371650     
           6 -0.224797327531925     
           7  0.414133464560543     
           8 -0.214886905085858     
           9 -0.138177880079018     
          10 -0.453440459690004     
          11 -0.152468897596384     
          12  0.244303221713623     
Sym=     7a
Ene=  -0.351881073814695     
Spin= Alpha
Occup=     2.00000000
           1 -0.338067370446875     
           2 -3.787754015438981E-005
           3 -1.206317409140116E-004
           4  0.112459705894395     
           5 -0.333784589283796     
           6  0.338526279040926     
           7 -3.744650613449420E-004
           8  4.654948410149347E-004
           9  2.667495710673530E-004
          10 -0.263067582645759     
          11  0.777066215466909     
          12 -6.617310529041211E-004
Sym=     8a
Ene=   0.259536009917232     
Spin= Alpha
Occup=     0.00000000
           1  0.112805442323371     
           2 -0.725204108775238     
           3 -0.757171354724049     
           4  3.315743745987755E-002
           5  1.082272577880968E-002
           6  0.112051959218810     
           7  0.132304184742287     
           8  0.823828280110782     
           9 -0.601577880410415     
          10 -0.392344970184006     
          11 -0.133037749627868     
          12 -0.551550984137852     
Sym=     9a
Ene=   0.332788118546245     
Spin= Alpha
Occup=     0.00000000
           1  0.569967236623641     
           2 -0.811603048198662     
           3 -3.828843638644241E-002
           4  0.458569829437094     
           5  0.156469825478144     
           6  0.572109564732005     
           7 -0.184584186061540     
           8 -0.290518279844276     
           9 -0.488582580963358     
          10  0.476867507900551     
          11  0.161581363848819     
          12  0.899460561628685     
Sym=    10a
Ene=   0.385172156564508     
Spin= Alpha
Occup=     0.00000000
           1  0.490554032256847     
           2 -0.986574907482984     
           3  0.722033547598195     
           4 -0.349931640195940     
           5 -0.120501794677114     
           6  0.487350254096758     
           7  0.986956940417736     
           8  1.270177986423607E-003
           9  0.234979266643541     
          10 -0.149257515230659     
          11 -5.026904671755428E-002
          12 -0.340384217822273     
Sym=    11a
Ene=   0.404053354061569     
Spin= Alpha
Occup=     0.00000000
           1 -0.877804582439499     
           2 -1.306580587953261E-003
           3  3.325261767181405E-004
           4 -0.362796401134390     
           5   1.06270534513837     
           6  0.876403882010435     
           7  3.584867714849944E-003
           8  4.111300557280180E-004
           9  1.543607745944060E-005
          10  6.643002535473395E-002
          11 -0.196280371008182     
          12 -6.701636782014436E-004
Sym=    12a
Ene=   0.423972681146354     
Spin= Alpha
Occup=     0.00000000
           1 -0.474479952723855     
           2 -0.100842217939784     
           3 -0.366518891770591     
           4 -0.881955090241283     
           5 -0.300799189126867     
           6 -0.477900383143313     
           7  0.761483898332935     
           8 -0.107427220002883     
           9 -0.367831815626535     
          10  0.497736981932896     
          11  0.169206399153958     
          12  0.586318077758482     
