45
 energy: -2839.304807922100 gnorm: 0.000835375007 xtb: 6.7.1 (edcfbbe)
ZN           0.00010616961256        0.00005814325639       -0.00006068486254
H           -1.19599072793432        2.18686208112827       -1.84703334007891
H           -0.29964077504483        1.27617562425163       -3.04665202918709
H           -4.05082650301131       -2.09514094932311       -2.41351305797154
H           -2.26425833149392       -2.24148341897963       -0.34315306744493
H           -1.88092347574480        1.96962770586830       -3.48373937795479
C           -1.30357329846099        1.50148738876134       -2.68732571808930
C           -3.25904250032558       -1.41941869986902       -2.15187694302524
C           -1.98019655290678        0.25875470008645       -2.24803752860436
C           -2.38100324516032       -1.50187565153328       -1.11371347474463
N           -3.00772717797136       -0.29300298908038       -2.88258623844449
N           -1.56576797643385       -0.42067180140526       -1.17625896064533
H            1.22296774824226       -2.16058425257017       -1.86964869147890
H            0.33028871106587       -1.23029307465368       -3.05699388063903
H            4.07392643025007        2.13452696700803       -2.33918334012216
H            2.26736042491091        2.24653758788681       -0.28397624728989
H            1.91596802645798       -1.91145785703796       -3.49833344157948
C            1.33298005570276       -1.45950047675411       -2.69665676492886
C            3.28004174885606        1.45432343914190       -2.09620142125673
C            2.00388514515487       -0.22319323977882       -2.23122116110863
C            2.39232661902533        1.51928548957002       -1.06497822545885
N            3.03830952399584        0.33832233147092       -2.84564853974113
N            1.57808018699178        0.43908899571283       -1.15319725319185
H            1.23649823518361        0.29159524212816        3.06304020570838
H            2.16287021941574        1.19226978274909        1.87879786640068
H           -2.12698790847455        4.04431669019911        2.39665165235146
H           -2.24568634736073        2.26363929437654        0.31949615611491
H            1.92333696784283        1.87165569914722        3.51466409574498
C            1.46619826933230        1.29679458664403        2.71011874428027
C           -1.44767497672405        3.25344687552719        2.14162651302572
C            0.22920336975236        1.97442116166122        2.25641300560403
C           -1.51636797112757        2.37823740923790        1.10010782744880
N           -0.33135507108499        2.99968220036636        2.88691282034319
N           -0.43584909248738        1.56308123878037        1.17447291065145
H           -1.95780296969261       -1.92499835714209        3.46714845749082
H           -1.27035248496426       -0.33828913977951        3.03989606879603
H            2.24321978985456       -2.26727789053620        0.30828014214402
H            2.10290499141844       -4.08062185267858        2.35569879678021
H           -2.18482452676051       -1.22694401468119        1.83747112556482
C           -1.49497172990293       -1.33975395814935        2.67341017683302
C            1.50547225653171       -2.39454781264847        1.07897242217520
C           -0.25267502293405       -2.00957060488049        2.22259370426385
C            1.42606175536528       -3.28597327361361        2.10591554919090
N            0.42397783344755       -1.58081522313007        1.15469774325198
N            0.30112987759019       -3.04499028673608        2.84236061368369
