[Molden Format]
[Title]
[Atoms] AU
H      1     1 -0.21004743464483E+01 -0.14466278337315E+01  0.12828900297012E+01
C      2     6 -0.13364708104044E+01 -0.27259876239013E-01 -0.92665804122991E-02
H      3     1 -0.21007926610078E+01 -0.37029592030437E+00 -0.18977034732521E+01
H      4     1 -0.19450457966425E+01  0.18345226179571E+01  0.62077857321585E+00
O      5     8  0.13432778628249E+01 -0.53764663734946E-02 -0.21398503771978E-02
H      6     1  0.19499815490093E+01 -0.16195769392340E+01 -0.54824837628089E+00
[GTO]
           1 0
 s           8   1.000000    
   337.005012218500       3.431920878672441E-002
   53.3105310515000       6.055026192114068E-002
   12.2082534814000       0.107490264607116     
   3.41882690980000       0.165429158706404     
   1.10879012580000       0.202665829361907     
  0.478717798300000       0.123186453792416     
  0.212137087700000       8.634657540047801E-002
  6.905810860000000E-002  7.937171397560203E-003
 
           2 0
 s           6   1.000000    
   2.20862762910000       -1.32707839257521     
   1.91795894900000        1.01712865100305     
  0.497153036800000       0.266199224780313     
  0.192182467300000       0.133632848783705     
  0.150531183200000      -6.552930587436735E-002
  7.818867730000000E-002  2.221495901694961E-002
 p           6   1.000000    
   24.5973356357000       0.515430929743143     
   6.48816086650000       0.738944267869982     
   2.22635867440000       0.656680584349130     
  0.776897003100000       0.442438927400842     
  0.283424721400000       0.120445683280972     
  9.862825729999999E-002  1.373813895854901E-002
 
           3 0
 s           8   1.000000    
   337.005012218500       3.431887310182022E-002
   53.3105310515000       6.054995788073599E-002
   12.2082534814000       0.107489351911747     
   3.41882690980000       0.165428080471006     
   1.10879012580000       0.202664031617789     
  0.478717798300000       0.123186095975391     
  0.212137087700000       8.634632496850804E-002
  6.905810860000000E-002  7.937813954209987E-003
 
           4 0
 s           8   1.000000    
   337.005012218500       3.461859816383725E-002
   53.3105310515000       6.082101033676234E-002
   12.2082534814000       0.108304074745222     
   3.41882690980000       0.166390028254278     
   1.10879012580000       0.204268926868089     
  0.478717798300000       0.123504353777450     
  0.212137087700000       8.656906805727982E-002
  6.905810860000000E-002  7.363045958498665E-003
 
           5 0
 s           6   1.000000    
   3.48359494310000       -1.31915230542100     
   2.85986576440000        1.12066159840368     
  0.740681029000000       0.296563710502483     
  0.344926919200000       8.180869102755300E-002
  0.261978532900000       3.967010062924783E-002
  9.461635039999999E-002  1.133510504129775E-002
 p           6   1.000000    
   37.6414713255000        1.49646166385593     
   9.71308856170000        1.81763630526156     
   3.13717714760000        1.32777905871928     
   1.12138051620000       0.642154891781884     
  0.398077926500000       0.184404915174767     
  0.123047771000000       1.718438294643140E-002
 
           6 0
 s           8   1.000000    
   337.005012218500       3.753703047143280E-002
   53.3105310515000       6.341487169728816E-002
   12.2082534814000       0.116215216606053     
   3.41882690980000       0.175671531947608     
   1.10879012580000       0.219866776455403     
  0.478717798300000       0.126469848904599     
  0.212137087700000       8.864436570112638E-002
  6.905810860000000E-002  1.653104994417584E-003
 
[MO]
Sym=     1a
Ene=   -1.34804374549388     
Spin= Alpha
Occup=     2.00000000
           1 -4.568416179761113E-002
           2 -0.197219685667269     
           3 -7.293694719188348E-002
           4 -9.391001082342848E-004
           5 -3.100201791972993E-004
           6 -4.568380271628673E-002
           7 -4.584176537560899E-002
           8 -0.808355707174502     
           9  2.358536502821290E-002
          10  1.183722571969023E-002
          11  4.010850922655538E-003
          12 -0.112640021840729     
Sym=     2a
Ene=  -0.731420924854619     
Spin= Alpha
Occup=     2.00000000
           1  0.190255028798536     
           2  0.583130293862637     
           3 -9.957547124821484E-002
           4 -5.651191171766157E-004
           5 -1.743904251069385E-004
           6  0.190243612689067     
           7  0.180389386875717     
           8 -0.370674409687281     
           9 -0.196971944786480     
          10  4.507077616676045E-002
          11  1.529364296883490E-002
          12 -9.885376196032489E-002
Sym=     3a
Ene=  -0.516013626616636     
Spin= Alpha
Occup=     2.00000000
           1  0.140871019752958     
           2  3.550227509528694E-002
           3 -0.268367213926126     
           4 -0.238380198865172     
           5 -8.113175106023289E-002
           6  0.141252125927495     
           7 -4.470689876363853E-002
           8 -0.150934803078579     
           9  0.320770910609867     
          10 -0.505272453938797     
          11 -0.171726765337408     
          12  0.319355833387092     
Sym=     4a
Ene=  -0.468408812192745     
Spin= Alpha
Occup=     2.00000000
           1 -4.845970768631431E-002
           2  1.940159786717723E-002
           3  0.406400465886638     
           4 -0.248130633957553     
           5 -0.103567325254350     
           6 -3.012809652645561E-002
           7 -0.245525106988935     
           8 -0.186210407607743     
           9 -0.610406532800713     
          10 -0.312361343631401     
          11 -0.128593756866777     
          12  3.505887322680961E-003
Sym=     5a
Ene=  -0.467750220154075     
Spin= Alpha
Occup=     2.00000000
           1  0.242164685947223     
           2  7.507722826187428E-004
           3  1.512007748837165E-002
           4 -0.167138828950249     
           5  0.461374915189672     
           6 -0.244777459283522     
           7 -9.391371397997790E-003
           8 -7.072001723534639E-003
           9 -2.263333990287298E-002
          10 -0.196696963937769     
          11  0.539817352866875     
          12  2.881573521271898E-004
Sym=     6a
Ene=  -0.384016639143836     
Spin= Alpha
Occup=     2.00000000
           1 -0.224732555446994     
           2  2.623840971018065E-002
           3  7.394820909489340E-002
           4  0.470442728260437     
           5  0.158717020101048     
           6 -0.223944709158252     
           7  0.410866929253604     
           8 -0.218550725228696     
           9 -0.147448723334584     
          10 -0.459309706261277     
          11 -0.154162066274803     
          12  0.243435711218366     
Sym=     7a
Ene=  -0.350939938816728     
Spin= Alpha
Occup=     2.00000000
           1 -0.338978465317391     
           2 -4.019928665600292E-005
           3 -1.590816294564333E-004
           4  0.113515802604381     
           5 -0.337514064196351     
           6  0.339653264076601     
           7 -5.972977942549147E-004
           8  4.847057797487402E-004
           9  3.477935153723655E-004
          10 -0.262064275005209     
          11  0.775408278484777     
          12 -6.739370280987895E-004
Sym=     8a
Ene=   0.269503289691344     
Spin= Alpha
Occup=     0.00000000
           1  8.062223455852650E-002
           2 -0.692159621098853     
           3 -0.779414735007372     
           4  1.885373341405347E-002
           5  6.171671843505881E-003
           6  8.005208480322180E-002
           7  0.130078732792941     
           8  0.843844165791922     
           9 -0.596458933782979     
          10 -0.392595578679262     
          11 -0.132883220359002     
          12 -0.566251339239132     
Sym=     9a
Ene=   0.348906598244134     
Spin= Alpha
Occup=     0.00000000
           1  0.571674233721986     
           2 -0.796389109173324     
           3 -7.590891763675013E-002
           4  0.501464592910606     
           5  0.170715635734881     
           6  0.573321602138620     
           7 -0.242938617538920     
           8 -0.270274234584081     
           9 -0.510785285692391     
          10  0.459884517025426     
          11  0.155628468896245     
          12  0.887281774575419     
Sym=    10a
Ene=   0.394396234284423     
Spin= Alpha
Occup=     0.00000000
           1  0.498423456029775     
           2  -1.04559100727377     
           3  0.687464096047376     
           4 -0.364749810053687     
           5 -0.124873690799362     
           6  0.496332893851863     
           7   1.01536897539055     
           8  3.963019109042238E-003
           9  0.191494692965931     
          10 -0.119092223768817     
          11 -4.009573215103546E-002
          12 -0.292927131225796     
Sym=    11a
Ene=   0.412746879439496     
Spin= Alpha
Occup=     0.00000000
           1  0.882618603437091     
           2  7.823883606741690E-004
           3 -3.264207753332657E-004
           4  0.362934464959024     
           5  -1.06643238140977     
           6 -0.881695502941369     
           7 -2.267862274818696E-003
           8 -3.080873822431765E-004
           9 -4.435991271328477E-005
          10 -6.641114452123083E-002
          11  0.196517305734671     
          12  5.393302912238834E-004
Sym=    12a
Ene=   0.438058801210835     
Spin= Alpha
Occup=     0.00000000
           1 -0.483289568442849     
           2 -7.193899129544463E-002
           3 -0.386893664767618     
           4 -0.859995434052113     
           5 -0.292362335187831     
           6 -0.485198728239402     
           7  0.717150980863506     
           8 -0.134023454136307     
           9 -0.386287684759698     
          10  0.526197155176193     
          11  0.178516221182385     
          12  0.640205109948148     
