[Molden Format]
[Title]
[Atoms] AU
H      1     1  0.15017097093859E+02 -0.81891050616283E+01  0.10590811459048E+02
H      2     1  0.12623234087046E+02 -0.64719088605200E+01  0.12167805864779E+02
H      3     1  0.12720098474104E+02 -0.12848873471338E+00  0.53271483621362E+01
H      4     1  0.12701862921350E+02 -0.46008016195058E+01  0.28020289372968E+01
H      5     1  0.15731347613977E+02 -0.52814004053808E+01  0.12123838429826E+02
C      6     6  0.14324495096201E+02 -0.62968540695268E+01  0.11013106425398E+02
C      7     6  0.13030314498352E+02 -0.20027190177013E+01  0.60481311834124E+01
C      8     6  0.13794504879944E+02 -0.49376135637378E+01  0.86145259371764E+01
C      9     6  0.13020906309899E+02 -0.42514482679923E+01  0.47777750032701E+01
N     10     7  0.13530819885601E+02 -0.24286178783662E+01  0.85366937941223E+01
N     11     7  0.13515571088943E+02 -0.61653167593820E+01  0.64278645184088E+01
[GTO]
           1 0
 s           8   1.000000    
   337.005012218500       3.260103656375317E-002
   53.3105310515000       5.898060132039834E-002
   12.2082534814000       0.102812241431903     
   3.41882690980000       0.159885101944266     
   1.10879012580000       0.193455623139004     
  0.478717798300000       0.121315446341335     
  0.212137087700000       8.503701978263381E-002
  6.905810860000000E-002  1.119241014441280E-002
 
           2 0
 s           8   1.000000    
   337.005012218500       3.244524195847207E-002
   53.3105310515000       5.883696728276482E-002
   12.2082534814000       0.102387435174672     
   3.41882690980000       0.159379951041882     
   1.10879012580000       0.192619655049727     
  0.478717798300000       0.121141955966358     
  0.212137087700000       8.491558476133199E-002
  6.905810860000000E-002  1.148431508726939E-002
 
           3 0
 s           8   1.000000    
   337.005012218500       3.288126988487469E-002
   53.3105310515000       5.923842250320287E-002
   12.2082534814000       0.103576096490206     
   3.41882690980000       0.160792726249432     
   1.10879012580000       0.194958963936047     
  0.478717798300000       0.121625926992766     
  0.212137087700000       8.525433921935646E-002
  6.905810860000000E-002  1.066600472525666E-002
 
           4 0
 s           8   1.000000    
   337.005012218500       3.288778250502320E-002
   53.3105310515000       5.924440599911825E-002
   12.2082534814000       0.103593844497800     
   3.41882690980000       0.160813803947128     
   1.10879012580000       0.194993896270215     
  0.478717798300000       0.121633118265036     
  0.212137087700000       8.525937268071333E-002
  6.905810860000000E-002  1.065375041177483E-002
 
           5 0
 s           8   1.000000    
   337.005012218500       3.254198532598876E-002
   53.3105310515000       5.892618442623260E-002
   12.2082534814000       0.102651238076813     
   3.41882690980000       0.159693680273349     
   1.10879012580000       0.193138780031475     
  0.478717798300000       0.121249761576945     
  0.212137087700000       8.499104367354325E-002
  6.905810860000000E-002  1.130311433920347E-002
 
           6 0
 s           6   1.000000    
   2.20862762910000       -1.25498072459381     
   1.91795894900000       0.961615431108269     
  0.497153036800000       0.251663934060584     
  0.192182467300000       0.126342478440934     
  0.150531183200000      -5.175798566305106E-002
  7.818867730000000E-002  2.100139616014433E-002
 p           6   1.000000    
   24.5973356357000       0.494728204442781     
   6.48816086650000       0.719971431145043     
   2.22635867440000       0.639078916371337     
  0.776897003100000       0.431537446512667     
  0.283424721400000       0.117487598207217     
  9.862825729999999E-002  1.649319222672273E-002
 
           7 0
 s           6   1.000000    
   2.20862762910000       -1.32135811430048     
   1.91795894900000        1.01272410084046     
  0.497153036800000       0.265045958037826     
  0.192182467300000       0.133054414686726     
  0.150531183200000      -6.443293545429078E-002
  7.818867730000000E-002  2.211867166569088E-002
 p           6   1.000000    
   24.5973356357000       0.513845299029098     
   6.48816086650000       0.737500245483887     
   2.22635867440000       0.655339934768126     
  0.776897003100000       0.441609826297253     
  0.283424721400000       0.120220722487902     
  9.862825729999999E-002  1.395196484925050E-002
 
           8 0
 s           6   1.000000    
   2.20862762910000       -1.40553328466242     
   1.91795894900000        1.07753969668074     
  0.497153036800000       0.282017012062721     
  0.192182467300000       0.141566399102039     
  0.150531183200000      -8.063278599561312E-002
  7.818867730000000E-002  2.353560493221790E-002
 p           6   1.000000    
   24.5973356357000       0.536248242176501     
   6.48816086650000       0.757755166101070     
   2.22635867440000       0.674160917193438     
  0.776897003100000       0.453229482710317     
  0.283424721400000       0.123373277311291     
  9.862825729999999E-002  1.088539280032644E-002
 
           9 0
 s           6   1.000000    
   2.20862762910000       -1.32118636850985     
   1.91795894900000        1.01259185875750     
  0.497153036800000       0.265011332397933     
  0.192182467300000       0.133037047795582     
  0.150531183200000      -6.440002806904513E-002
  7.818867730000000E-002  2.211578073820947E-002
 p           6   1.000000    
   24.5973356357000       0.513797544407787     
   6.48816086650000       0.737456731723994     
   2.22635867440000       0.655299538626612     
  0.776897003100000       0.441584840784747     
  0.283424721400000       0.120213943109543     
  9.862825729999999E-002  1.395839726437247E-002
 
          10 0
 s           6   1.000000    
   2.69507309610000       -1.12791721666608     
   2.24947021280000       0.931000905890100     
  0.611851695800000       0.234327059983628     
  0.303726665600000       8.952925424934258E-002
  0.171628270400000       3.114334469931996E-002
  7.154913430000000E-002  1.047770692251119E-002
 p           6   1.000000    
   27.5476401720000       0.926448924888972     
   7.12656627820000        1.19110661393007     
   2.35805520400000       0.896712532662718     
  0.845047262300000       0.472559128563073     
  0.301063057900000       0.123141552404282     
  9.457452580000000E-002  1.322713742472476E-002
 
          11 0
 s           6   1.000000    
   2.69507309610000       -1.12791600741137     
   2.24947021280000       0.930999893137666     
  0.611851695800000       0.234326804220089     
  0.303726665600000       8.952915678135964E-002
  0.171628270400000       3.114330999309584E-002
  7.154913430000000E-002  1.047785032354357E-002
 p           6   1.000000    
   27.5476401720000       0.926446692828199     
   7.12656627820000        1.19110479941873     
   2.35805520400000       0.896710483572814     
  0.845047262300000       0.472558331265569     
  0.301063057900000       0.123141391605644     
  9.457452580000000E-002  1.322732935566647E-002
 
[MO]
Sym=     1a
Ene=   -1.12804724118365     
Spin= Alpha
Occup=     2.00000000
           1 -3.277964169045292E-002
           2 -2.859347133759579E-002
           3 -5.394601846855364E-002
           4 -5.394048550004145E-002
           5 -3.080056710768911E-002
           6 -0.120356302398299     
           7  8.105975998192948E-003
           8 -1.962141016249362E-002
           9  3.352613756444320E-002
          10 -0.217272908598224     
          11 -1.047397089773466E-002
          12  4.371041959620953E-002
          13 -3.306254997278220E-002
          14 -0.283315610234873     
          15  9.303377821830971E-003
          16 -2.143996645210014E-002
          17  3.797324002929888E-002
          18 -0.217147741344536     
          19 -1.062822593410472E-002
          20  5.861037361377336E-003
          21 -5.445791386142199E-002
          22 -0.327991198301282     
          23  1.585579876546094E-003
          24  2.279162144661063E-002
          25  2.068956128315061E-002
          26 -0.328975332827897     
          27  1.389676331652957E-003
          28 -2.976572340423174E-002
          29 -8.797555054105385E-003
Sym=     2a
Ene=  -0.675976097459337     
Spin= Alpha
Occup=     2.00000000
           1 -0.137078531707089     
           2 -0.138424341465710     
           3  6.993556764056170E-002
           4  6.409413574785808E-002
           5 -0.137058364204563     
           6 -0.483549472394488     
           7  3.956071877734235E-003
           8 -9.729465631275813E-003
           9  1.963618152092642E-002
          10  0.239392899752083     
          11 -1.117867970569931E-003
          12 -2.224909402826071E-002
          13 -1.788894258935107E-002
          14 -0.208913725223097     
          15 -2.561060377231732E-002
          16  7.211984438740225E-002
          17 -0.108088236161327     
          18  0.218579804456427     
          19 -2.344837873560389E-003
          20  3.810256262757902E-002
          21  8.176026879579894E-003
          22  5.657878111376431E-002
          23 -1.370717173233056E-002
          24  3.806977011434000E-002
          25 -5.436778939689028E-002
          26  3.885476068878697E-003
          27 -1.313318201213685E-002
          28  2.449878601203001E-002
          29 -5.848063423560777E-002
Sym=     3a
Ene=  -0.670627127690691     
Spin= Alpha
Occup=     2.00000000
           1  3.838465491632995E-003
           2 -9.399855830561981E-003
           3 -5.333645317307345E-002
           4  6.018349366853296E-002
           5 -1.504649590731809E-002
           6 -2.590495059926342E-002
           7  1.084661319608513E-004
           8 -1.421194411176787E-002
           9 -6.842678134829886E-003
          10 -0.189978902922583     
          11 -1.479417316898311E-002
          12 -4.438720213476512E-002
          13 -0.104147048514589     
          14 -1.146196951720657E-002
          15 -1.999031128431379E-003
          16 -0.154884520997724     
          17 -9.527885032259280E-002
          18  0.213178496613486     
          19  1.394982996628652E-002
          20 -0.108721900663858     
          21  1.660989742792693E-002
          22 -0.507004357873336     
          23  6.059655262410321E-003
          24 -3.543996180209435E-003
          25  3.082032099068035E-002
          26  0.510386355079802     
          27 -7.362100739213636E-003
          28  2.705017982037676E-002
          29 -2.512755953955521E-002
Sym=     4a
Ene=  -0.488682689140077     
Spin= Alpha
Occup=     2.00000000
           1 -0.112297626128415     
           2 -0.118907064252480     
           3 -0.114874459121090     
           4 -0.114936439776727     
           5 -0.115563639476778     
           6 -0.323548281824974     
           7 -2.007325175915491E-002
           8  5.213332988625187E-002
           9 -9.298804374767805E-002
          10 -0.322295432197121     
          11  2.527877146991363E-002
          12  1.504688738112823E-002
          13  0.146239016391412     
          14  0.233101691418245     
          15 -1.754280798860176E-002
          16  4.418864822659041E-002
          17 -7.778348921578562E-002
          18 -0.322466870258735     
          19  2.462560463915183E-002
          20 -0.132936367356450     
          21  6.252533882440688E-002
          22  0.236852826469629     
          23  1.792381860274685E-002
          24 -8.275746298612070E-002
          25  5.219429952226041E-002
          26  0.236778296462834     
          27  1.824928012907865E-002
          28 -1.940530348707996E-003
          29  9.764203195339625E-002
Sym=     5a
Ene=  -0.334429192801503     
Spin= Alpha
Occup=     2.00000000
           1 -6.519514663421061E-002
           2  1.497557058727133E-002
           3 -0.183351044163807     
           4  0.181834558184453     
           5  5.100045127255428E-002
           6  7.326282971270570E-004
           7  7.462074466008411E-004
           8  0.113933488946935     
           9  6.620322030123234E-002
          10 -0.284257343152373     
          11  9.195675454523808E-003
          12 -0.160598966575367     
          13 -3.547575459554680E-002
          14  7.007347792148011E-004
          15  8.352250730496365E-004
          16  0.286056640358148     
          17  0.160110717956450     
          18  0.283237235536087     
          19 -9.841278934709777E-003
          20 -0.113499596470189     
          21 -0.116364750348716     
          22  0.154080999497683     
          23  5.265206066192259E-002
          24 -0.212996232793368     
          25  0.170264148226951     
          26 -0.155434813756307     
          27 -5.388729298452408E-002
          28  3.941163137076042E-002
          29 -0.270313803265871     
Sym=     6a
Ene=  -0.307209533560112     
Spin= Alpha
Occup=     2.00000000
           1 -0.114933133498924     
           2 -0.125133708264395     
           3  6.016690177937092E-002
           4  6.273940027209485E-002
           5 -0.119613436736978     
           6 -9.662504466778227E-002
           7 -5.829766832901138E-002
           8  0.161634810640979     
           9 -0.293025783878878     
          10  7.865324938569873E-002
          11 -4.720849312683219E-002
          12 -4.757242878746044E-002
          13 -0.281598280706505     
          14  0.346379314319058     
          15  3.737940560059592E-002
          16 -8.767136562142569E-002
          17  0.156683903465102     
          18  8.175856193080612E-002
          19 -4.616101661403580E-002
          20  0.265155915018745     
          21 -0.106525765392207     
          22 -0.182155967287817     
          23  4.725438847581771E-002
          24 -0.151022111756058     
          25  0.176198540036257     
          26 -0.185198403250888     
          27  4.727718008182493E-002
          28 -7.236115097340604E-002
          29  0.218679294321185     
Sym=     7a
Ene=  -0.288184241929055     
Spin= Alpha
Occup=     2.00000000
           1 -2.980591652365219E-002
           2 -5.354640453851884E-002
           3  0.164943875468576     
           4  0.169913616943075     
           5 -3.817638316688982E-002
           6 -2.397452933922520E-002
           7 -1.839114727941587E-002
           8  7.297425782370581E-002
           9 -0.140666269565882     
          10  4.740719242583684E-003
          11 -2.418799751359132E-002
          12  0.348887585365184     
          13  5.049865107905337E-002
          14 -1.897462933317931E-002
          15  5.399434360929084E-002
          16 -0.114606372322234     
          17  0.206865577418739     
          18  9.611383329193885E-003
          19 -2.729785811803312E-002
          20 -0.224004094250051     
          21 -0.276936813325612     
          22  0.242316086823547     
          23  3.861790230464428E-003
          24  0.247719549958075     
          25  0.140449463333781     
          26  0.237103969184784     
          27  1.313066722373508E-003
          28 -0.249788418679955     
          29 -0.142663998578368     
Sym=     8a
Ene=  -0.261176943897325     
Spin= Alpha
Occup=     2.00000000
           1  9.427983089933918E-002
           2 -0.293565726972701     
           3 -4.941762721386434E-003
           4 -6.034386271321505E-003
           5  0.209279089528809     
           6  2.984286354140289E-003
           7  0.430272959891050     
           8  3.648786445729051E-002
           9 -6.311280548785439E-002
          10  6.923899928834436E-004
          11  0.131160318755472     
          12  3.100697743387596E-003
          13 -2.505202925758319E-002
          14 -6.609278433147101E-003
          15  0.330003327147925     
          16  3.597840439702440E-002
          17 -6.595934758823645E-002
          18 -7.015832904285941E-005
          19  0.130388571730780     
          20  1.882499186522701E-002
          21 -1.482006204085407E-002
          22 -3.408546327109507E-003
          23  0.220600205498931     
          24  1.797769321623478E-002
          25 -4.229806814248866E-002
          26 -2.223363316906661E-003
          27  0.217464416263951     
          28  2.546466458603653E-002
          29 -3.755519291818585E-002
Sym=     9a
Ene=  -0.244881892865202     
Spin= Alpha
Occup=     2.00000000
           1 -0.333646837410905     
           2  7.141929931243156E-002
           3  0.219168253781828     
           4 -0.210496543941538     
           5  0.255412666726845     
           6 -2.366262397962590E-003
           7  7.391025324435155E-004
           8  0.417469870540274     
           9  0.230307715493248     
          10  0.115619497577219     
          11 -4.429750017019733E-002
          12  0.165886236848380     
          13 -0.149928383688898     
          14  8.457191751672484E-003
          15 -8.625338243777202E-004
          16  7.169506109350689E-002
          17  4.635663733352368E-002
          18 -0.116902561813840     
          19  4.010362325216757E-002
          20 -5.048248068226694E-002
          21  0.207472110583750     
          22 -0.184361397443156     
          23  2.634392390846481E-002
          24 -4.913241168206928E-002
          25  0.109614693392673     
          26  0.186173428518495     
          27 -3.008476565548246E-002
          28  6.562868995791495E-002
          29 -9.880764556255185E-002
Sym=    10a
Ene=  -0.223540535450926     
Spin= Alpha
Occup=     2.00000000
           1 -9.378314559259862E-002
           2  0.301824880016206     
           3  9.416093358646077E-003
           4  6.285378818117370E-003
           5 -0.206656215091764     
           6 -4.721459382030601E-003
           7 -0.382424942583767     
           8 -3.597022387344988E-002
           9  6.838520210265339E-002
          10 -2.634957805293531E-003
          11  0.307597021046715     
          12  4.193765512583722E-002
          13 -6.170275017260374E-002
          14  1.042451945375813E-002
          15  0.173682284391442     
          16  2.061803264775368E-002
          17 -3.546455178092846E-002
          18 -3.749966602987305E-003
          19  0.310109054026919     
          20  2.829276017987044E-002
          21 -6.595937686433004E-002
          22 -5.051998278415510E-006
          23  0.280255675273006     
          24  2.206021195405481E-002
          25 -4.644493943261645E-002
          26  1.785419514810500E-003
          27  0.286279556540805     
          28  2.863710666919680E-002
          29 -4.783883157696295E-002
Sym=    11a
Ene=  -0.201912051454476     
Spin= Alpha
Occup=     2.00000000
           1  0.290667900500900     
           2 -6.558559882771810E-002
           3  0.238921103951432     
           4 -0.252038512056680     
           5 -0.224696117034137     
           6  3.849864414122417E-003
           7 -3.066936018549402E-004
           8 -0.298105972431591     
           9 -0.172354385795516     
          10  5.615560791378542E-002
          11 -5.877100280646249E-002
          12  0.144661083383222     
          13 -0.232482772679129     
          14 -8.756168838881301E-003
          15  2.121447952164203E-003
          16  0.241059908652535     
          17  0.141582140231953     
          18 -5.117150504841383E-002
          19  5.927133446845861E-002
          20 -0.117058499158034     
          21  0.260187948842957     
          22 -4.359555595836654E-002
          23  6.379329183280530E-002
          24 -0.240472001953025     
          25  0.243061500447994     
          26  4.539756387158168E-002
          27 -6.649107297540867E-002
          28  7.867581089716785E-002
          29 -0.340357550372789     
Sym=    12a
Ene=  -0.197121499124033     
Spin= Alpha
Occup=     2.00000000
           1 -0.102568390575958     
           2 -8.928456081685203E-002
           3 -0.169394788854897     
           4 -0.162549519151222     
           5 -9.704917776262227E-002
           6  0.152091661365194     
           7 -8.785741974729341E-002
           8  0.218411111371065     
           9 -0.376326830826053     
          10  0.114562816912348     
          11  6.655224487427047E-002
          12 -0.175241200693450     
          13  0.215119118096353     
          14 -4.092648516965202E-002
          15  8.628712733338981E-002
          16 -0.207471287420703     
          17  0.357055265806409     
          18  0.116227374175369     
          19  6.529994736175673E-002
          20 -9.073249251959264E-002
          21  0.254287538329121     
          22 -0.151722573015717     
          23 -6.139593925561599E-002
          24  0.220473952963275     
          25 -0.251279275086284     
          26 -0.153277649179975     
          27 -6.006618208128812E-002
          28  0.101059130043184     
          29 -0.308550966663050     
Sym=    13a
Ene=  -0.154691020792667     
Spin= Alpha
Occup=     2.00000000
           1  1.799954306802480E-002
           2  2.656556988528328E-002
           3 -0.228993315974327     
           4 -0.224130418687681     
           5  2.546558255587209E-002
           6 -6.424131086337415E-002
           7 -1.622557835410028E-004
           8 -2.455879942729406E-002
           9  7.272673895105503E-002
          10  4.494748065416085E-002
          11 -4.169923353892698E-003
          12 -0.299200188634374     
          13 -0.208263279875188     
          14 -0.269959976419926     
          15  2.354659122574230E-002
          16 -6.348655404509269E-002
          17  0.109925041095944     
          18  4.246219502339466E-002
          19 -3.188662109933139E-003
          20  0.336949114166857     
          21  0.142546832405404     
          22  0.355159261919942     
          23  4.216088767608357E-002
          24  0.247971530991598     
          25  0.351382998604697     
          26  0.360386135582416     
          27  4.136187171078021E-002
          28 -0.438297868568607     
          29 -2.410383794951904E-002
Sym=    14a
Ene=  -0.127380461457420     
Spin= Alpha
Occup=     2.00000000
           1  4.478847124349993E-004
           2  3.737477621574378E-004
           3 -5.379352846232149E-003
           4  7.789786024123720E-003
           5  7.519994668374882E-005
           6 -1.412147165960013E-003
           7 -6.113608062560297E-005
           8  2.626251446921607E-002
           9  1.235036021446928E-002
          10  0.197715704308794     
          11  9.931401125197380E-003
          12 -7.268817060253335E-002
          13  0.121343662794406     
          14  2.035380360155322E-003
          15  1.194113478175604E-003
          16  0.216065790781736     
          17  0.121908734300278     
          18 -0.197835848582115     
          19 -1.039149267185643E-002
          20  6.254620769846030E-002
          21 -0.125677163039474     
          22 -0.242393164852619     
          23 -7.467048279197347E-002
          24 -0.467105276775031     
          25 -0.443984144351199     
          26  0.236633842411580     
          27  6.978418998376880E-002
          28 -0.615560013868719     
          29 -0.170828829522132     
Sym=    15a
Ene=  -0.126569223114068     
Spin= Alpha
Occup=     2.00000000
           1  9.998032073875414E-004
           2 -2.723953595060568E-003
           3  6.089325833535441E-004
           4 -3.714966519759532E-004
           5  1.733177147037738E-003
           6 -8.332608938123826E-007
           7 -6.442254904762057E-003
           8 -9.609966502793971E-003
           9 -4.160688702997285E-003
          10  1.136478687518987E-002
          11  0.307598989485260     
          12  2.576842858743235E-002
          13 -4.979738418950685E-002
          14  3.080714953513178E-005
          15 -8.321465294316871E-003
          16  1.359222606863691E-002
          17  9.511951434212563E-003
          18 -1.142237819158087E-002
          19 -0.290608583406833     
          20 -2.598490138577080E-002
          21  4.565522066276388E-002
          22 -1.331502208961771E-002
          23  0.603391979729185     
          24  2.903671518038935E-002
          25 -0.138597936032333     
          26  1.287680903100822E-002
          27 -0.606633731472073     
          28 -9.962951060555512E-002
          29  9.934001075367088E-002
Sym=    16a
Ene=  -9.365022772462923E-002
Spin= Alpha
Occup=     2.00000000
           1  5.999512026193426E-002
           2 -0.192487213426192     
           3  2.400366571312436E-003
           4  2.294170310050017E-003
           5  0.132049269255043     
           6  2.273964515822644E-003
           7  0.124107998911228     
           8  1.042752870775484E-002
           9 -2.010477251976405E-002
          10 -2.094921056756088E-003
          11  0.496430340419328     
          12  4.969034052541991E-002
          13 -9.106253601456821E-002
          14 -6.058474812289866E-003
          15 -0.539704238379040     
          16 -4.963360430811309E-002
          17  9.190857639874579E-002
          18 -1.976494816273097E-003
          19  0.507974043788200     
          20  5.018271808914786E-002
          21 -9.318677193302738E-002
          22 -2.289198176393071E-004
          23 -0.233676527430417     
          24 -2.701089283651960E-002
          25  4.278799172337290E-002
          26 -5.601652235815723E-004
          27 -0.215597854701755     
          28 -1.893059634496146E-002
          29  4.260543134174836E-002
Sym=    17a
Ene=   0.325352831305253     
Spin= Alpha
Occup=     0.00000000
           1 -9.059439036095412E-002
           2  0.286499867792420     
           3 -3.297332041122077E-003
           4 -3.345020630003399E-003
           5 -0.198710076289431     
           6 -7.274246275809818E-003
           7  0.137526235368979     
           8  6.242102439421248E-003
           9 -1.184771462056488E-002
          10  1.536981334116877E-003
          11  0.230542878412353     
          12  2.256146817797863E-002
          13 -4.379268962669136E-002
          14  1.966251278710657E-002
          15  0.777131146066658     
          16  7.099620069252413E-002
          17 -0.131236201357888     
          18  1.568395011863642E-003
          19  0.184417669112324     
          20  1.986937922866497E-002
          21 -3.446571024565986E-002
          22 -3.844408985933311E-004
          23 -0.609346530613312     
          24 -5.417774274729977E-002
          25  0.111920648875426     
          26 -3.937845025955554E-005
          27 -0.591090353297511     
          28 -6.238989661997392E-002
          29  0.103224289001539     
Sym=    18a
Ene=   0.345242903532567     
Spin= Alpha
Occup=     0.00000000
           1  1.328819531042895E-002
           2 -4.735390544331175E-003
           3  2.449423879616280E-003
           4 -2.235939997741168E-003
           5 -8.290696660168347E-003
           6  2.123998168114509E-004
           7  6.489015125643919E-003
           8  1.611838618651046E-002
           9  7.137575214756069E-003
          10 -4.294125729518905E-003
          11  0.770143969323576     
          12  7.504416307024456E-002
          13 -0.139259036886759     
          14 -7.063646360231259E-004
          15 -2.657978856347447E-002
          16 -1.408957621377516E-003
          17  4.939562458180040E-003
          18  4.170120770589114E-003
          19 -0.781237906272675     
          20 -7.686344663879598E-002
          21  0.140888826588384     
          22 -1.416077555580991E-003
          23 -0.391448087849503     
          24 -3.645376137447817E-002
          25  7.004571188492972E-002
          26  1.392082910601356E-003
          27  0.426972337592785     
          28  4.255504300187124E-002
          29 -7.496003158124472E-002
Sym=    19a
Ene=   0.542760732726082     
Spin= Alpha
Occup=     0.00000000
           1  0.311015735818694     
           2 -0.184881687281287     
           3 -0.113366659924934     
           4  0.864007244509949     
           5 -0.365051356939872     
           6  0.447055637036520     
           7 -9.151635480816600E-002
           8  0.493161668617980     
           9 -0.110865458771691     
          10  0.296963960945048     
          11  4.081495209597741E-003
          12 -7.429597617090893E-002
          13 -1.269648429981928E-002
          14 -0.660776813614654     
          15 -1.589127700137456E-002
          16  0.295799734634677     
          17 -4.246072979057671E-002
          18 -0.941936204201596     
          19  3.863375389595410E-002
          20  0.193241836634123     
          21  0.307395374065659     
          22 -0.128859750617401     
          23  2.983820426472666E-002
          24 -2.394114871826937E-002
          25  0.155460042691330     
          26  0.533715967310590     
          27 -2.911376143292403E-002
          28  0.312384438612320     
          29  8.780228020282578E-002
Sym=    20a
Ene=   0.546580578240244     
Spin= Alpha
Occup=     0.00000000
           1  0.354916533954945     
           2  5.845705826636952E-002
           3 -0.895505205780083     
           4 -5.374667942718014E-003
           5 -0.117933063431957     
           6 -0.527421317428857     
           7  0.104085773646251     
           8  1.551476085739549E-002
           9  0.462125063424274     
          10  0.978620711038902     
          11 -3.672221363878558E-002
          12  0.393402225222450     
          13  1.495654483136720E-002
          14  0.749119008593601     
          15  2.193071520192371E-002
          16  5.825209261557986E-002
          17  0.276347693478532     
          18 -0.163290218588232     
          19 -5.431137129872644E-003
          20 -0.115537487589121     
          21 -9.329903383199244E-002
          22 -0.529906935654023     
          23  3.433402516683235E-002
          24  0.208824911765185     
          25  0.231874128079388     
          26  2.059307932911783E-002