[Molden Format]
[Title]
[Atoms] AU
H      1     1 -0.21004796133254E+01 -0.14466200687536E+01  0.12828920167057E+01
C      2     6 -0.13364698805893E+01 -0.27256054449649E-01 -0.92652153683520E-02
H      3     1 -0.21007971928991E+01 -0.37028724724591E+00 -0.18977006013972E+01
H      4     1 -0.19450333460779E+01  0.18345293574023E+01  0.62078167050103E+00
O      5     8  0.13432787513209E+01 -0.53881260390749E-02 -0.21432359358271E-02
H      6     1  0.19499719955390E+01 -0.16195918253049E+01 -0.54825391506830E+00
[GTO]
           1 0
 s           8   1.000000    
   337.005012218500       3.431920830191489E-002
   53.3105310515000       6.055026148203416E-002
   12.2082534814000       0.107490263288965     
   3.41882690980000       0.165429157149175     
   1.10879012580000       0.202665826765534     
  0.478717798300000       0.123186453275645     
  0.212137087700000       8.634657503879575E-002
  6.905810860000000E-002  7.937172325568028E-003
 
           2 0
 s           6   1.000000    
   2.20862762910000       -1.32707849301252     
   1.91795894900000        1.01712872833880     
  0.497153036800000       0.266199245029546     
  0.192182467300000       0.133632858939935     
  0.150531183200000      -6.552932513028860E-002
  7.818867730000000E-002  2.221496070757784E-002
 p           6   1.000000    
   24.5973356357000       0.515430957500234     
   6.48816086650000       0.738944293134611     
   2.22635867440000       0.656680607806624     
  0.776897003100000       0.442438941905889     
  0.283424721400000       0.120445687216620     
  9.862825729999999E-002  1.373813521125686E-002
 
           3 0
 s           8   1.000000    
   337.005012218500       3.431887503125088E-002
   53.3105310515000       6.054995962828516E-002
   12.2082534814000       0.107489357157687     
   3.41882690980000       0.165428086668432     
   1.10879012580000       0.202664041950762     
  0.478717798300000       0.123186098032040     
  0.212137087700000       8.634632640793287E-002
  6.905810860000000E-002  7.937810260966779E-003
 
           4 0
 s           8   1.000000    
   337.005012218500       3.461860144276722E-002
   53.3105310515000       6.082101329742712E-002
   12.2082534814000       0.108304083655911     
   3.41882690980000       0.166390038769184     
   1.10879012580000       0.204268944422368     
  0.478717798300000       0.123504357245626     
  0.212137087700000       8.656907048457509E-002
  6.905810860000000E-002  7.363039659179628E-003
 
           5 0
 s           6   1.000000    
   3.48359494310000       -1.31915230511514     
   2.85986576440000        1.12066159811460     
  0.740681029000000       0.296563710401801     
  0.344926919200000       8.180869100666616E-002
  0.261978532900000       3.967010061866109E-002
  9.461635039999999E-002  1.133510509285244E-002
 p           6   1.000000    
   37.6414713255000        1.49646166277536     
   9.71308856170000        1.81763630409719     
   3.13717714760000        1.32777905751602     
   1.12138051620000       0.642154891343388     
  0.398077926500000       0.184404915110208     
  0.123047771000000       1.718438304411427E-002
 
           6 0
 s           8   1.000000    
   337.005012218500       3.753702938965649E-002
   53.3105310515000       6.341487075166663E-002
   12.2082534814000       0.116215213681253     
   3.41882690980000       0.175671528536911     
   1.10879012580000       0.219866770683891     
  0.478717798300000       0.126469847851951     
  0.212137087700000       8.864436496454078E-002
  6.905810860000000E-002  1.653107150518973E-003
 
[MO]
Sym=     1a
Ene=   -1.34804377615498     
Spin= Alpha
Occup=     2.00000000
           1 -4.568416210509142E-002
           2 -0.197219703089233     
           3 -7.293695470064547E-002
           4 -9.386760586322218E-004
           5 -3.098906781455268E-004
           6 -4.568380914019299E-002
           7 -4.584177256833524E-002
           8 -0.808355686829112     
           9  2.358544578908701E-002
          10  1.183708486020357E-002
          11  4.010816426974947E-003
          12 -0.112640020228594     
Sym=     2a
Ene=  -0.731420943192817     
Spin= Alpha
Occup=     2.00000000
           1  0.190255020544059     
           2  0.583130269197352     
           3 -9.957551597242163E-002
           4 -5.645407663458132E-004
           5 -1.742164332967349E-004
           6  0.190243614066911     
           7  0.180389393073177     
           8 -0.370674434469153     
           9 -0.196971642947594     
          10  4.507190446095254E-002
          11  1.529402163769667E-002
          12 -9.885374973485990E-002
Sym=     3a
Ene=  -0.516013645441893     
Spin= Alpha
Occup=     2.00000000
           1  0.140870962923659     
           2  3.550222157656859E-002
           3 -0.268368744383369     
           4 -0.238378598248986     
           5 -8.113145673461590E-002
           6  0.141252159363106     
           7 -4.470687051515436E-002
           8 -0.150934767026317     
           9  0.320767702437321     
          10 -0.505274176516940     
          11 -0.171727679943018     
          12  0.319355831447843     
Sym=     4a
Ene=  -0.468408838054670     
Spin= Alpha
Occup=     2.00000000
           1 -4.846096264716784E-002
           2  1.940163103039488E-002
           3  0.406398766604208     
           4 -0.248132066230669     
           5 -0.103570519796467     
           6 -3.012681862178356E-002
           7 -0.245525031046757     
           8 -0.186210430193951     
           9 -0.610408444679144     
          10 -0.312356769205474     
          11 -0.128595561375695     
          12  3.505908762805727E-003
Sym=     5a
Ene=  -0.467750223276438     
Spin= Alpha
Occup=     2.00000000
           1  0.242164419891375     
           2  7.508763817281087E-004
           3  1.512195896555316E-002
           4 -0.167140438031981     
           5  0.461374240222193     
           6 -0.244777513578832     
           7 -9.392657353822324E-003
           8 -7.072953097903067E-003
           9 -2.263657474829137E-002
          10 -0.196698843003352     
          11  0.539816710776771     
          12  2.882027472006271E-004
Sym=     6a
Ene=  -0.384016642864385     
Spin= Alpha
Occup=     2.00000000
           1 -0.224732436086616     
           2  2.623842449350074E-002
           3  7.395117012396034E-002
           4  0.470442200967671     
           5  0.158717210225828     
           6 -0.223944858773485     
           7  0.410866919464957     
           8 -0.218550709140216     
           9 -0.147451633646524     
          10 -0.459308692089038     
          11 -0.154162243478018     
          12  0.243435720873064     
Sym=     7a
Ene=  -0.350939927431692     
Spin= Alpha
Occup=     2.00000000
           1 -0.338978622778364     
           2 -4.018446554345658E-005
           3 -1.590267380638877E-004
           4  0.113516130193653     
           5 -0.337514036822058     
           6  0.339653226611569     
           7 -5.971172541965110E-004
           8  4.846737987888385E-004
           9  3.476705171612705E-004
          10 -0.262064799948420     
          11  0.775408011403300     
          12 -6.739024696410866E-004
Sym=     8a
Ene=   0.269503356363278     
Spin= Alpha
Occup=     0.00000000
           1  8.062231916889696E-002
           2 -0.692159714994239     
           3 -0.779414309418312     
           4  1.885803523157857E-002
           5  6.172828796787906E-003
           6  8.005193904650287E-002
           7  0.130079079984957     
           8  0.843844354360238     
           9 -0.596461202696583     
          10 -0.392592329748713     
          11 -0.132882469819032     
          12 -0.566251858910658     
Sym=     9a
Ene=   0.348906626706782     
Spin= Alpha
Occup=     0.00000000
           1  0.571673927291614     
           2 -0.796388692349627     
           3 -7.590670753665425E-002
           4  0.501464980044896     
           5  0.170715570473660     
           6  0.573320764447647     
           7 -0.242938960739953     
           8 -0.270273936536830     
           9 -0.510782906886389     
          10  0.459887517644563     
          11  0.155629839390403     
          12  0.887282082612176     
Sym=    10a
Ene=   0.394396433569098     
Spin= Alpha
Occup=     0.00000000
           1  0.498424247838832     
           2  -1.04559144483496     
           3  0.687462228154618     
           4 -0.364753064474594     
           5 -0.124875221387935     
           6  0.496333120573781     
           7   1.01536873939044     
           8  3.962524672179667E-003
           9  0.191493816810726     
          10 -0.119092927413336     
          11 -4.009596447746053E-002
          12 -0.292926391144271     
Sym=    11a
Ene=   0.412746844798289     
Spin= Alpha
Occup=     0.00000000
           1  0.882619009372390     
           2  7.832587134558893E-004
           3 -3.256568402497500E-004
           4  0.362936177564417     
           5  -1.06643173195541     
           6 -0.881695079294573     
           7 -2.269321905509106E-003
           8 -3.078997760999108E-004
           9 -4.356091050302828E-005
          10 -6.641217568811793E-002
          11  0.196517003347477     
          12  5.381444432771960E-004
Sym=    12a
Ene=   0.438058871487729     
Spin= Alpha
Occup=     0.00000000
           1 -0.483288310968786     
           2 -7.193888578084529E-002
           3 -0.386899054860741     
           4 -0.859992846382317     
           5 -0.292363887675624     
           6 -0.485200433267647     
           7  0.717151321246088     
           8 -0.134023191928588     
           9 -0.386284085112187     
          10  0.526198926824694     
          11  0.178517446834514     
          12  0.640204540291993     
