11
 energy: -264.973053726500 gnorm: 0.000223108503 xtb: 6.7.1 (edcfbbe)
H            7.94670612025447       -4.33348808400921        5.60441646704785
H            6.67992828107609       -3.42478692320992        6.43892602753725
H            6.73118671089459       -0.06799331509604        2.81900571250897
H            6.72153687126374       -2.43463954180291        1.48276996319428
H            8.32467124521447       -2.79479693462969        6.41565946128615
C            7.58019690084311       -3.33215191057929        5.82788535538699
C            6.89534597304025       -1.05979333926161        3.20053341807178
C            7.29973813648409       -2.61287275970608        4.55861113237681
C            6.89036737376133       -2.24976969650244        2.52828983007711
N            7.16020203671291       -1.28516932647816        4.51742413307229
N            7.15213272045496       -3.26254535872465        3.40147965944053
