4
 energy: -76.702999143300 gnorm: 0.000116097624 xtb: 6.7.1 (edcfbbe)
O            0.92035034498725        0.05459372531817       -0.02591236992094
H            0.58022059497595        0.95568754776686       -0.20764922274210
H            0.58033892310122       -0.58962234674546       -0.68169219514026
H            1.90009305693558        0.04634152366043        0.00125273780330
