1
 energy: 0.004470451600 gnorm: 0.000000000000 xtb: 6.7.1 (edcfbbe)
H            0.00000000000000        0.00000000000000        0.00000000000000
