43
 energy: -2691.331750179300 gnorm: 0.000790131899 xtb: 6.7.1 (edcfbbe)
ZN           0.11511561830091        0.05600734112765       -0.33773579421623
H            0.21009724905306        0.57181540489473       -4.25868557643395
C            0.32392865704457        0.93289967220200       -3.23917701554372
H            1.18414957123403        1.59944606883577       -3.17214356688635
H           -0.57688140152080        1.46128300395290       -2.93038774219119
O            0.47343031362975       -0.18787504536323       -2.34372265993216
H            1.23268033303712       -0.71650926329422       -2.60237446674162
N           -3.88249266019387       -0.14914797628665        0.60027966283291
N           -1.86696945649031       -0.05497502947591       -0.21426786413618
C           -2.58384215983172       -0.02212430638264        0.89569477250382
C           -2.05100556899957        0.10409129458822        2.26644712763531
C           -3.99941671110787       -0.27187404222049       -0.75687819896836
C           -2.74241555858911       -0.21342374158644       -1.25113247950291
H           -4.64328081479297       -0.15540209776268        1.25901031545172
H           -1.00130606165107        0.39169412349443        2.22604818414772
H           -2.13565228676097       -0.84426146338731        2.79676508656389
H           -2.60780472519626        0.85157457051308        2.82838370452444
H           -4.94650717991740       -0.38462241300218       -1.24916489441030
H           -2.41353868096225       -0.27529912450359       -2.27079827424957
N            1.53573291249698       -3.45694050661999        1.25806970467399
N            1.03258366960009       -1.45006565460543        0.58309630355557
C            0.81535010638376       -2.74036068488929        0.38821910352072
C           -0.07975622406301       -3.32632506687306       -0.62874245786283
C            2.23911626371953       -2.58845997854719        2.04666115795892
C            1.91775885897749       -1.34684787080790        1.62017288116899
H            1.56098137345682       -4.46121064683178        1.32159191921236
H           -0.61362450292606       -2.53190628478302       -1.14690114490557
H           -0.80062565810653       -3.99524770104281       -0.16112810861097
H            0.48975281806313       -3.90723313723183       -1.35357723116709
H            2.89531481572160       -2.91786201009967        2.82977028523477
H            2.25607523533742       -0.39702540728390        1.98861668504161
N            2.06760493675264        3.60519723184722        0.46745985677340
N            0.80341895561651        1.86470001738561        0.13327329273460
C            2.04465063528355        2.32049085325282        0.09576374543286
C            3.24071228952200        1.55878787468431       -0.31437119519651
C            0.78634654551245        3.98884959784824        0.75264615723889
C            0.01133196415526        2.90177734126586        0.54083195013219
H            2.88392120556387        4.19120157364947        0.52671175222909
H            2.98407918355777        0.50676149297902       -0.42658491602888
H            4.02963534852437        1.65432649591888        0.42951086249582
H            3.63032375607819        1.93609469478598       -1.25954816591195
H            0.53791096721475        4.98155514869074        1.07658334849069
H           -1.05136653272759        2.79630962096392        0.65053857334334
